
                                 *****************
                                 * O   R   C   A *
                                 *****************

           --- An Ab Initio, DFT and Semiempirical electronic structure package ---

                  #######################################################
                  #                        -***-                        #
                  #  Department of molecular theory and spectroscopy    #
                  #              Directorship: Frank Neese              #
                  # Max Planck Institute for Chemical Energy Conversion #
                  #                  D-45470 Muelheim/Ruhr              #
                  #                       Germany                       #
                  #                                                     #
                  #                  All rights reserved                #
                  #                        -***-                        #
                  #######################################################


                         Program Version 4.0.1.2 - RELEASE -


 With contributions from (in alphabetic order):
   Daniel Aravena         : Magnetic Properties
   Michael Atanasov       : Ab Initio Ligand Field Theory
   Ute Becker             : Parallelization
   Martin Brehm           : Molecular dynamics
   Dmytro Bykov           : SCF Hessian
   Vijay G. Chilkuri      : MRCI spin determinant printing
   Dipayan Datta          : RHF DLPNO-CCSD density
   Achintya Kumar Dutta   : EOM-CC, STEOM-CC
   Dmitry Ganyushin       : Spin-Orbit,Spin-Spin,Magnetic field MRCI
   Yang Guo               : DLPNO-NEVPT2, CIM, IAO-localization
   Andreas Hansen         : Spin unrestricted coupled pair/coupled cluster methods
   Lee Huntington         : MR-EOM, pCC
   Robert Izsak           : Overlap fitted RIJCOSX, COSX-SCS-MP3, EOM
   Christian Kollmar      : KDIIS, OOCD, Brueckner-CCSD(T), CCSD density
   Simone Kossmann        : Meta GGA functionals, TD-DFT gradient, OOMP2, MP2 Hessian
   Martin Krupicka        : AUTO-CI
   Dagmar Lenk            : GEPOL surface
   Dimitrios Liakos       : Extrapolation schemes; parallel MDCI
   Dimitrios Manganas     : ROCIS; embedding schemes
   Dimitrios Pantazis     : SARC Basis sets
   Taras Petrenko         : DFT Hessian,TD-DFT gradient, ASA, ECA, R-Raman, ABS, FL, XAS/XES, NRVS
   Peter Pinski           : DLPNO-MP2
   Christoph Reimann      : Effective Core Potentials
   Marius Retegan         : Local ZFS, SOC
   Christoph Riplinger    : Optimizer, TS searches, QM/MM, DLPNO-CCSD(T), (RO)-DLPNO pert. Triples
   Tobias Risthaus        : Range-separated hybrids, TD-DFT gradient, RPA, STAB
   Michael Roemelt        : Restricted open shell CIS
   Masaaki Saitow         : Open-shell DLPNO
   Barbara Sandhoefer     : DKH picture change effects
   Kantharuban Sivalingam : CASSCF convergence, NEVPT2, FIC-MRCI
   Georgi Stoychev        : AutoAux
   Boris Wezisla          : Elementary symmetry handling
   Frank Wennmohs         : Technical directorship


 We gratefully acknowledge several colleagues who have allowed us to
 interface, adapt or use parts of their codes:
   Stefan Grimme, W. Hujo, H. Kruse,             : VdW corrections, initial TS optimization,
                  C. Bannwarth                     DFT functionals, gCP, sTDA/sTD-DF
   Ed Valeev                                     : LibInt (2-el integral package), F12 methods
   Garnet Chan, S. Sharma, J. Yang, R. Olivares  : DMRG
   Ulf Ekstrom                                   : XCFun DFT Library
   Mihaly Kallay                                 : mrcc  (arbitrary order and MRCC methods)
   Andreas Klamt, Michael Diedenhofen            : otool_cosmo (COSMO solvation model)
   Jiri Pittner, Ondrej Demel                    : Mk-CCSD
   Frank Weinhold                                : gennbo (NPA and NBO analysis)
   Christopher J. Cramer and Donald G. Truhlar   : smd solvation model


 Your calculation uses the libint2 library for the computation of 2-el integrals
 For citations please refer to: http://libint.valeyev.net

 This ORCA versions uses:
   CBLAS   interface :  Fast vector & matrix operations
   LAPACKE interface :  Fast linear algebra routines
   SCALAPACK package :  Parallel linear algebra routines


Your calculation utilizes the atom-pairwise dispersion correction
with the Becke-Johnson damping scheme (D3BJ)
Cite in your paper:
S.Grimme, S.Ehrlich, L.Goerigk, J Comput Chem, (2011), 32, 1456–1465 
S.Grimme, J.Antony, S.Ehrlich and H.Krieg, J.Chem.Phys., 132, (2010), 154104 
   

Your calculation utilizes the basis: def2-SVP
   F. Weigend and R. Ahlrichs, Phys. Chem. Chem. Phys. 7, 3297 (2005).

Your calculation utilizes the auxiliary basis: def2/J
   F. Weigend, Phys. Chem. Chem. Phys. 8, 1057 (2006).

================================================================================
                                        WARNINGS
                       Please study these warnings very carefully!
================================================================================

Warning: TCutStore was < 0. Adjusted to Thresh (uncritical)

WARNING: Geometry Optimization
  ===> : Switching off AutoStart
         For restart on a previous wavefunction, please use MOREAD

INFO   : the flag for use of LIBINT has been found!

================================================================================
                                       INPUT FILE
================================================================================
NAME = /scratch/1796902.1.multiway.q/MeArCONMe2.inp
|  1> ! TightOpt PBE0 RIJCOSX D3BJ def2-SVP def2/J PAL4 Freq
|  2> %maxcore 4000
|  3> %geom
|  4> Calc_Hess true
|  5> Trust -0.1
|  6> end 
|  7> *xyz 0 1
|  8>  C                 -1.95870000    0.70530000    0.44230000
|  9>  C                 -2.15930000   -0.62720000    0.05720000
| 10>  C                 -0.69840000    1.28910000    0.38720000
| 11>  C                  0.41400000    0.54620000   -0.02030000
| 12>  C                  0.22500000   -0.78580000   -0.40010000
| 13>  C                 -1.04480000   -1.35690000   -0.36890000
| 14>  H                 -1.17750000   -2.38960000   -0.70220000
| 15>  C                 -3.52380000   -1.25090000    0.10040000
| 16>  H                 -2.81230000    1.30230000    0.77490000
| 17>  H                 -0.56170000    2.33890000    0.65480000
| 18>  C                  1.72740000    1.25680000   -0.18200000
| 19>  H                  1.07270000   -1.37700000   -0.75470000
| 20>  O                  1.76990000    2.31980000   -0.77640000
| 21>  N                  2.85260000    0.66100000    0.32540000
| 22>  C                  2.86280000   -0.41070000    1.28620000
| 23>  C                  4.12800000    1.27840000    0.05140000
| 24>  H                  3.36390000   -1.31070000    0.88810000
| 25>  H                  1.84400000   -0.68250000    1.58350000
| 26>  H                  3.40880000   -0.09740000    2.19370000
| 27>  H                  3.97160000    2.08150000   -0.67730000
| 28>  H                  4.83820000    0.53730000   -0.35260000
| 29>  H                  4.56700000    1.71510000    0.96690000
| 30>  H                 -3.50112331   -2.29496392   -0.24126832
| 31>  H                 -4.23523540   -0.70098320   -0.53355583
| 32>  H                 -3.93207226   -1.25151924    1.12510128
| 33> *
| 34> 
| 35>                          ****END OF INPUT****
================================================================================

                       *****************************
                       * Geometry Optimization Run *
                       *****************************

Geometry optimization settings:
Update method            Update   .... BFGS
Choice of coordinates    CoordSys .... Redundant Internals
Initial Hessian          InHess   .... Almoef's Model

Convergence Tolerances:
Energy Change            TolE     ....  1.0000e-06 Eh
Max. Gradient            TolMAXG  ....  1.0000e-04 Eh/bohr
RMS Gradient             TolRMSG  ....  3.0000e-05 Eh/bohr
Max. Displacement        TolMAXD  ....  1.0000e-03 bohr
RMS Displacement         TolRMSD  ....  6.0000e-04 bohr

------------------------------------------------------------------------------
                        ORCA OPTIMIZATION COORDINATE SETUP
------------------------------------------------------------------------------

The optimization will be done in new redundant internal coordinates
Making redundant internal coordinates   ...  (new redundants) done
Evaluating the initial hessian          ...  (Is done on the fly) done
Evaluating the coordinates              ...  done
Calculating the B-matrix                .... done
Calculating the G-matrix                .... done
Diagonalizing the G-matrix              .... done
Small eigenvalue found = 8.116e-03
Small eigenvalue found = 2.257e-02
The first mode is                       ....   48
The number of degrees of freedom        ....   69

    -----------------------------------------------------------------
                    Redundant Internal Coordinates


    -----------------------------------------------------------------
         Definition                    Initial Value    d2E/dq (diagonal element)
    -----------------------------------------------------------------
      1. B(C   1,C   0)                  1.4015         0.000000   
      2. B(C   2,C   0)                  1.3900         0.000000   
      3. B(C   3,C   2)                  1.3984         0.000000   
      4. B(C   4,C   3)                  1.3979         0.000000   
      5. B(C   5,C   4)                  1.3927         0.000000   
      6. B(C   5,C   1)                  1.3986         0.000000   
      7. B(H   6,C   5)                  1.0932         0.000000   
      8. B(C   7,C   1)                  1.5009         0.000000   
      9. B(H   8,C   0)                  1.0935         0.000000   
     10. B(H   9,C   2)                  1.0920         0.000000   
     11. B(C  10,C   3)                  1.5020         0.000000   
     12. B(H  11,C   4)                  1.0926         0.000000   
     13. B(O  12,C  10)                  1.2186         0.000000   
     14. B(N  13,C  10)                  1.3706         0.000000   
     15. B(C  14,N  13)                  1.4394         0.000000   
     16. B(C  15,N  13)                  1.4432         0.000000   
     17. B(H  16,C  14)                  1.1043         0.000000   
     18. B(H  17,C  14)                  1.0955         0.000000   
     19. B(H  18,C  14)                  1.1045         0.000000   
     20. B(H  19,C  15)                  1.0956         0.000000   
     21. B(H  20,C  15)                  1.1031         0.000000   
     22. B(H  21,C  15)                  1.1052         0.000000   
     23. B(H  22,C   7)                  1.0988         0.000000   
     24. B(H  23,C   7)                  1.1002         0.000000   
     25. B(H  24,C   7)                  1.1030         0.000000   
     26. A(C   1,C   0,H   8)          119.4030         0.000000   
     27. A(C   2,C   0,H   8)          119.3756         0.000000   
     28. A(C   1,C   0,C   2)          121.2119         0.000000   
     29. A(C   5,C   1,C   7)          121.0912         0.000000   
     30. A(C   0,C   1,C   5)          117.7563         0.000000   
     31. A(C   0,C   1,C   7)          121.1525         0.000000   
     32. A(C   0,C   2,C   3)          120.6427         0.000000   
     33. A(C   3,C   2,H   9)          118.8543         0.000000   
     34. A(C   0,C   2,H   9)          120.5015         0.000000   
     35. A(C   2,C   3,C   4)          118.5441         0.000000   
     36. A(C   4,C   3,C  10)          122.6668         0.000000   
     37. A(C   2,C   3,C  10)          118.4007         0.000000   
     38. A(C   3,C   4,C   5)          120.5256         0.000000   
     39. A(C   5,C   4,H  11)          119.5229         0.000000   
     40. A(C   3,C   4,H  11)          119.9233         0.000000   
     41. A(C   1,C   5,H   6)          119.2746         0.000000   
     42. A(C   1,C   5,C   4)          121.2942         0.000000   
     43. A(C   4,C   5,H   6)          119.4203         0.000000   
     44. A(C   1,C   7,H  23)          111.3203         0.000000   
     45. A(H  22,C   7,H  23)          108.0056         0.000000   
     46. A(C   1,C   7,H  24)          111.3132         0.000000   
     47. A(H  22,C   7,H  24)          107.2159         0.000000   
     48. A(C   1,C   7,H  22)          111.5395         0.000000   
     49. A(H  23,C   7,H  24)          107.2313         0.000000   
     50. A(O  12,C  10,N  13)          122.0815         0.000000   
     51. A(C   3,C  10,N  13)          118.1870         0.000000   
     52. A(C   3,C  10,O  12)          119.7141         0.000000   
     53. A(C  14,N  13,C  15)          116.0391         0.000000   
     54. A(C  10,N  13,C  15)          117.9855         0.000000   
     55. A(C  10,N  13,C  14)          125.2118         0.000000   
     56. A(H  17,C  14,H  18)          107.8863         0.000000   
     57. A(H  16,C  14,H  18)          107.6415         0.000000   
     58. A(N  13,C  14,H  18)          109.9239         0.000000   
     59. A(H  16,C  14,H  17)          108.5180         0.000000   
     60. A(N  13,C  14,H  17)          111.0559         0.000000   
     61. A(N  13,C  14,H  16)          111.6771         0.000000   
     62. A(N  13,C  15,H  19)          108.2817         0.000000   
     63. A(H  20,C  15,H  21)          108.2458         0.000000   
     64. A(H  19,C  15,H  21)          108.5414         0.000000   
     65. A(N  13,C  15,H  21)          111.2708         0.000000   
     66. A(H  19,C  15,H  20)          109.9239         0.000000   
     67. A(N  13,C  15,H  20)          110.5535         0.000000   
     68. D(C   7,C   1,C   0,H   8)     -0.3314         0.000000   
     69. D(C   5,C   1,C   0,H   8)    179.6732         0.000000   
     70. D(C   7,C   1,C   0,C   2)   -179.2005         0.000000   
     71. D(C   5,C   1,C   0,C   2)      0.8041         0.000000   
     72. D(C   3,C   2,C   0,H   8)    179.3031         0.000000   
     73. D(H   9,C   2,C   0,C   1)    177.7227         0.000000   
     74. D(H   9,C   2,C   0,H   8)     -1.1467         0.000000   
     75. D(C   3,C   2,C   0,C   1)     -1.8275         0.000000   
     76. D(C  10,C   3,C   2,C   0)    174.5053         0.000000   
     77. D(C   4,C   3,C   2,H   9)   -178.0923         0.000000   
     78. D(C   4,C   3,C   2,C   0)      1.4652         0.000000   
     79. D(C  10,C   3,C   2,H   9)     -5.0522         0.000000   
     80. D(C   5,C   4,C   3,C  10)   -172.8627         0.000000   
     81. D(H  11,C   4,C   3,C   2)    177.9223         0.000000   
     82. D(C   5,C   4,C   3,C   2)     -0.1369         0.000000   
     83. D(H  11,C   4,C   3,C  10)      5.1966         0.000000   
     84. D(H   6,C   5,C   4,H  11)     -0.1457         0.000000   
     85. D(C   1,C   5,C   4,H  11)   -178.9369         0.000000   
     86. D(C   1,C   5,C   4,C   3)     -0.8700         0.000000   
     87. D(H   6,C   5,C   1,C   7)      1.7478         0.000000   
     88. D(H   6,C   5,C   1,C   0)   -178.2568         0.000000   
     89. D(H   6,C   5,C   4,C   3)    177.9212         0.000000   
     90. D(C   4,C   5,C   1,C   7)   -179.4593         0.000000   
     91. D(C   4,C   5,C   1,C   0)      0.5361         0.000000   
     92. D(H  24,C   7,C   1,C   5)    119.2636         0.000000   
     93. D(H  24,C   7,C   1,C   0)    -60.7316         0.000000   
     94. D(H  23,C   7,C   1,C   5)   -121.1583         0.000000   
     95. D(H  23,C   7,C   1,C   0)     58.8465         0.000000   
     96. D(H  22,C   7,C   1,C   5)     -0.4423         0.000000   
     97. D(H  22,C   7,C   1,C   0)    179.5625         0.000000   
     98. D(O  12,C  10,C   3,C   2)    -46.1469         0.000000   
     99. D(N  13,C  10,C   3,C   4)    -51.9250         0.000000   
    100. D(N  13,C  10,C   3,C   2)    135.3394         0.000000   
    101. D(O  12,C  10,C   3,C   4)    126.5888         0.000000   
    102. D(C  15,N  13,C  10,O  12)     -4.6003         0.000000   
    103. D(C  15,N  13,C  10,C   3)    173.8762         0.000000   
    104. D(C  14,N  13,C  10,O  12)    164.9639         0.000000   
    105. D(C  14,N  13,C  10,C   3)    -16.5596         0.000000   
    106. D(H  18,C  14,N  13,C  15)     49.2120         0.000000   
    107. D(H  18,C  14,N  13,C  10)   -120.5333         0.000000   
    108. D(H  17,C  14,N  13,C  15)    168.5262         0.000000   
    109. D(H  17,C  14,N  13,C  10)     -1.2192         0.000000   
    110. D(H  16,C  14,N  13,C  15)    -70.1918         0.000000   
    111. D(H  16,C  14,N  13,C  10)    120.0628         0.000000   
    112. D(H  21,C  15,N  13,C  14)    -59.8296         0.000000   
    113. D(H  21,C  15,N  13,C  10)    110.6900         0.000000   
    114. D(H  20,C  15,N  13,C  14)     60.4877         0.000000   
    115. D(H  20,C  15,N  13,C  10)   -128.9926         0.000000   
    116. D(H  19,C  15,N  13,C  14)   -179.0378         0.000000   
    117. D(H  19,C  15,N  13,C  10)     -8.5182         0.000000   
    -----------------------------------------------------------------

Number of atoms                         .... 25
Number of degrees of freedom            .... 117

         *************************************************************
         *                GEOMETRY OPTIMIZATION CYCLE   1            *
         *************************************************************
---------------------------------
CARTESIAN COORDINATES (ANGSTROEM)
---------------------------------
  C     -1.958700    0.705300    0.442300
  C     -2.159300   -0.627200    0.057200
  C     -0.698400    1.289100    0.387200
  C      0.414000    0.546200   -0.020300
  C      0.225000   -0.785800   -0.400100
  C     -1.044800   -1.356900   -0.368900
  H     -1.177500   -2.389600   -0.702200
  C     -3.523800   -1.250900    0.100400
  H     -2.812300    1.302300    0.774900
  H     -0.561700    2.338900    0.654800
  C      1.727400    1.256800   -0.182000
  H      1.072700   -1.377000   -0.754700
  O      1.769900    2.319800   -0.776400
  N      2.852600    0.661000    0.325400
  C      2.862800   -0.410700    1.286200
  C      4.128000    1.278400    0.051400
  H      3.363900   -1.310700    0.888100
  H      1.844000   -0.682500    1.583500
  H      3.408800   -0.097400    2.193700
  H      3.971600    2.081500   -0.677300
  H      4.838200    0.537300   -0.352600
  H      4.567000    1.715100    0.966900
  H     -3.501123   -2.294964   -0.241268
  H     -4.235235   -0.700983   -0.533556
  H     -3.932072   -1.251519    1.125101

----------------------------
CARTESIAN COORDINATES (A.U.)
----------------------------
  NO LB      ZA    FRAG     MASS         X           Y           Z
   0 C     6.0000    0    12.011   -3.701407    1.332824    0.835826
   1 C     6.0000    0    12.011   -4.080486   -1.185236    0.108092
   2 C     6.0000    0    12.011   -1.319785    2.436046    0.731702
   3 C     6.0000    0    12.011    0.782347    1.032168   -0.038361
   4 C     6.0000    0    12.011    0.425188   -1.484947   -0.756079
   5 C     6.0000    0    12.011   -1.974386   -2.564169   -0.697120
   6 H     1.0000    0     1.008   -2.225153   -4.515690   -1.326966
   7 C     6.0000    0    12.011   -6.659017   -2.363858    0.189729
   8 H     1.0000    0     1.008   -5.314477    2.460990    1.464349
   9 H     1.0000    0     1.008   -1.061459    4.419880    1.237393
  10 C     6.0000    0    12.011    3.264313    2.375008   -0.343930
  11 H     1.0000    0     1.008    2.027109   -2.602153   -1.426176
  12 O     8.0000    0    15.999    3.344626    4.383787   -1.467183
  13 N     7.0000    0    14.007    5.390633    1.249109    0.614917
  14 C     6.0000    0    12.011    5.409908   -0.776111    2.430566
  15 C     6.0000    0    12.011    7.800789    2.415826    0.097132
  16 H     1.0000    0     1.008    6.356850   -2.476864    1.678266
  17 H     1.0000    0     1.008    3.484655   -1.289738    2.992381
  18 H     1.0000    0     1.008    6.441698   -0.184059    4.145492
  19 H     1.0000    0     1.008    7.505236    3.933465   -1.279912
  20 H     1.0000    0     1.008    9.142873    1.015350   -0.666317
  21 H     1.0000    0     1.008    8.630379    3.241069    1.827176
  22 H     1.0000    0     1.008   -6.616164   -4.336853   -0.455931
  23 H     1.0000    0     1.008   -8.003435   -1.324666   -1.008274
  24 H     1.0000    0     1.008   -7.430540   -2.365029    2.126133

--------------------------------
INTERNAL COORDINATES (ANGSTROEM)
--------------------------------
 C      0   0   0     0.000000000000     0.00000000     0.00000000
 C      1   0   0     1.401463028410     0.00000000     0.00000000
 C      1   2   0     1.390041200828   121.21192300     0.00000000
 C      3   1   2     1.398352752348   120.64273313   358.17251789
 C      4   3   1     1.397924547320   118.54409224     1.46518997
 C      5   4   3     1.392666754827   120.52562436   359.86309105
 H      6   5   4     1.093237151765   119.42030915   177.92120867
 C      2   1   3     1.500909117835   121.15253362   180.79949747
 H      1   2   3     1.093464549037   119.40296441   178.86906891
 H      3   1   2     1.091960022162   120.50151271   177.72265048
 C      4   3   1     1.502038218555   118.40071132   174.50526895
 H      5   4   3     1.092636211188   119.92330630   177.92230369
 O     11   4   3     1.218641296691   119.71411032   313.85308777
 N     11   4   3     1.370586531380   118.18698842   135.33936139
 C     14  11   4     1.439368462208   125.21180926   343.44044560
 C     14  11   4     1.443226912166   117.98553971   173.87623644
 H     15  14  11     1.104348142571   111.67713833   120.06284946
 H     15  14  11     1.095543686943   111.05585763   358.78079779
 H     15  14  11     1.104458754323   109.92385681   239.46666441
 H     16  14  11     1.095643308746   108.28171526   351.48180395
 H     16  14  11     1.103099836823   110.55347825   231.00736707
 H     16  14  11     1.105245737382   111.27080811   110.69000049
 H      8   2   1     1.098781571654   111.53947248   179.56246489
 H      8   2   1     1.100203985489   111.32028280    58.84650734
 H      8   2   1     1.103040948912   111.31318998   299.26837441

---------------------------
INTERNAL COORDINATES (A.U.)
---------------------------
 C      0   0   0     0.000000000000     0.00000000     0.00000000
 C      1   0   0     2.648381310511     0.00000000     0.00000000
 C      1   2   0     2.626797184432   121.21192300     0.00000000
 C      3   1   2     2.642503740553   120.64273313   358.17251789
 C      4   3   1     2.641694550321   118.54409224     1.46518997
 C      5   4   3     2.631758762440   120.52562436   359.86309105
 H      6   5   4     2.065918816265   119.42030915   177.92120867
 C      2   1   3     2.836307184613   121.15253362   180.79949747
 H      1   2   3     2.066348534831   119.40296441   178.86906891
 H      3   1   2     2.063505391077   120.50151271   177.72265048
 C      4   3   1     2.838440875752   118.40071132   174.50526895
 H      5   4   3     2.064783203151   119.92330630   177.92230369
 O     11   4   3     2.302898306232   119.71411032   313.85308777
 N     11   4   3     2.590033187149   118.18698842   135.33936139
 C     14  11   4     2.720012199377   125.21180926   343.44044560
 C     14  11   4     2.727303613098   117.98553971   173.87623644
 H     15  14  11     2.086915545964   111.67713833   120.06284946
 H     15  14  11     2.070277536068   111.05585763   358.78079779
 H     15  14  11     2.087124571882   109.92385681   239.46666441
 H     16  14  11     2.070465793993   108.28171526   351.48180395
 H     16  14  11     2.084556589970   110.55347825   231.00736707
 H     16  14  11     2.088611754335   111.27080811   110.69000049
 H      8   2   1     2.076396251426   111.53947248   179.56246489
 H      8   2   1     2.079084224023   111.32028280    58.84650734
 H      8   2   1     2.084445307945   111.31318998   299.26837441

---------------------
BASIS SET INFORMATION
---------------------
There are 4 groups of distinct atoms

 Group   1 Type C   : 7s4p1d contracted to 3s2p1d pattern {511/31/1}
 Group   2 Type H   : 4s1p contracted to 2s1p pattern {31/1}
 Group   3 Type O   : 7s4p1d contracted to 3s2p1d pattern {511/31/1}
 Group   4 Type N   : 7s4p1d contracted to 3s2p1d pattern {511/31/1}

Atom   0C    basis set group =>   1
Atom   1C    basis set group =>   1
Atom   2C    basis set group =>   1
Atom   3C    basis set group =>   1
Atom   4C    basis set group =>   1
Atom   5C    basis set group =>   1
Atom   6H    basis set group =>   2
Atom   7C    basis set group =>   1
Atom   8H    basis set group =>   2
Atom   9H    basis set group =>   2
Atom  10C    basis set group =>   1
Atom  11H    basis set group =>   2
Atom  12O    basis set group =>   3
Atom  13N    basis set group =>   4
Atom  14C    basis set group =>   1
Atom  15C    basis set group =>   1
Atom  16H    basis set group =>   2
Atom  17H    basis set group =>   2
Atom  18H    basis set group =>   2
Atom  19H    basis set group =>   2
Atom  20H    basis set group =>   2
Atom  21H    basis set group =>   2
Atom  22H    basis set group =>   2
Atom  23H    basis set group =>   2
Atom  24H    basis set group =>   2
-------------------------------
AUXILIARY BASIS SET INFORMATION
-------------------------------
There are 4 groups of distinct atoms

 Group   1 Type C   : 12s5p4d2f1g contracted to 6s4p3d1f1g pattern {711111/2111/211/2/1}
 Group   2 Type H   : 5s2p1d contracted to 3s1p1d pattern {311/2/1}
 Group   3 Type O   : 12s5p4d2f1g contracted to 6s4p3d1f1g pattern {711111/2111/211/2/1}
 Group   4 Type N   : 12s5p4d2f1g contracted to 6s4p3d1f1g pattern {711111/2111/211/2/1}

Atom   0C    basis set group =>   1
Atom   1C    basis set group =>   1
Atom   2C    basis set group =>   1
Atom   3C    basis set group =>   1
Atom   4C    basis set group =>   1
Atom   5C    basis set group =>   1
Atom   6H    basis set group =>   2
Atom   7C    basis set group =>   1
Atom   8H    basis set group =>   2
Atom   9H    basis set group =>   2
Atom  10C    basis set group =>   1
Atom  11H    basis set group =>   2
Atom  12O    basis set group =>   3
Atom  13N    basis set group =>   4
Atom  14C    basis set group =>   1
Atom  15C    basis set group =>   1
Atom  16H    basis set group =>   2
Atom  17H    basis set group =>   2
Atom  18H    basis set group =>   2
Atom  19H    basis set group =>   2
Atom  20H    basis set group =>   2
Atom  21H    basis set group =>   2
Atom  22H    basis set group =>   2
Atom  23H    basis set group =>   2
Atom  24H    basis set group =>   2


           ************************************************************
           *        Program running with 4 parallel MPI-processes     *
           *              working on a common directory               *
           ************************************************************
------------------------------------------------------------------------------
                           ORCA GTO INTEGRAL CALCULATION
                           -- RI-GTO INTEGRALS CHOSEN --
------------------------------------------------------------------------------

                         BASIS SET STATISTICS AND STARTUP INFO

Gaussian basis set:
 # of primitive gaussian shells          ...  209
 # of primitive gaussian functions       ...  379
 # of contracted shells                  ...  111
 # of contracted basis functions         ...  233
 Highest angular momentum                ...    2
 Maximum contraction depth               ...    5
Auxiliary gaussian basis set:
 # of primitive gaussian shells          ...  392
 # of primitive gaussian functions       ... 1048
 # of contracted shells                  ...  245
 # of contracted aux-basis functions     ...  731
 Highest angular momentum                ...    4
 Maximum contraction depth               ...    7
Ratio of auxiliary to basis functions    ...  3.14
Integral package used                  ... LIBINT
 One Electron integrals                  ... done
 Ordering auxiliary basis shells         ... done
 Integral threshhold             Thresh  ...  2.500e-11
 Primitive cut-off               TCut    ...  2.500e-12
 Pre-screening matrix                    ... done
 Shell pair data                         ... 
 Ordering of the shell pairs             ... done (   0.001 sec) 5338 of 6216 pairs
 Determination of significant pairs      ... done (   0.000 sec)
 Creation of shell pair data             ... done (   0.001 sec)
 Storage of shell pair data              ... done (   0.001 sec)
 Shell pair data done in (   0.003 sec)
 Computing two index integrals           ... done
 Cholesky decomposition of the V-matrix  ... done


Timings:
 Total evaluation time                   ...   0.252 sec (  0.004 min)
 One electron matrix time                ...   0.040 sec (  0.001 min) = 15.8%
 Schwartz matrix evaluation time         ...   0.147 sec (  0.002 min) = 58.2%
 Two index repulsion integral time       ...   0.020 sec (  0.000 min) =  8.0%
 Cholesky decomposition of V             ...   0.020 sec (  0.000 min) =  7.8%
 Three index repulsion integral time     ...   0.000 sec (  0.000 min) =  0.0%



           ************************************************************
           *        Program running with 4 parallel MPI-processes     *
           *              working on a common directory               *
           ************************************************************
-------------------------------------------------------------------------------
                                 ORCA SCF
-------------------------------------------------------------------------------

------------
SCF SETTINGS
------------
Hamiltonian:
 Density Functional     Method          .... DFT(GTOs)
 Exchange Functional    Exchange        .... PBE
   PBE kappa parameter   XKappa         ....  0.804000
   PBE mue parameter    XMuePBE         ....  0.219520
 Correlation Functional Correlation     .... PBE
   PBE beta parameter  CBetaPBE         ....  0.066725
 LDA part of GGA corr.  LDAOpt          .... PW91-LDA
 Gradients option       PostSCFGGA      .... off
 Hybrid DFT is turned on
   Fraction HF Exchange ScalHFX         ....  0.250000
   Scaling of DF-GGA-X  ScalDFX         ....  0.750000
   Scaling of DF-GGA-C  ScalDFC         ....  1.000000
   Scaling of DF-LDA-C  ScalLDAC        ....  1.000000
   Perturbative correction              ....  0.000000
   NL short-range parameter             ....  6.900000
 RI-approximation to the Coulomb term is turned on
   Number of auxiliary basis functions  .... 731
   RIJ-COSX (HFX calculated with COS-X)).... on


General Settings:
 Integral files         IntName         .... /scratch/1796902.1.multiway.q/MeArCONMe2
 Hartree-Fock type      HFTyp           .... RHF
 Total Charge           Charge          ....    0
 Multiplicity           Mult            ....    1
 Number of Electrons    NEL             ....   88
 Basis Dimension        Dim             ....  233
 Nuclear Repulsion      ENuc            ....    675.5769904106 Eh

Convergence Acceleration:
 DIIS                   CNVDIIS         .... on
   Start iteration      DIISMaxIt       ....    12
   Startup error        DIISStart       ....  0.200000
   # of expansion vecs  DIISMaxEq       ....     5
   Bias factor          DIISBfac        ....   1.050
   Max. coefficient     DIISMaxC        ....  10.000
 Newton-Raphson         CNVNR           .... off
 SOSCF                  CNVSOSCF        .... on
   Start iteration      SOSCFMaxIt      ....   150
   Startup grad/error   SOSCFStart      ....  0.003300
 Level Shifting         CNVShift        .... on
   Level shift para.    LevelShift      ....    0.2500
   Turn off err/grad.   ShiftErr        ....    0.0010
 Zerner damping         CNVZerner       .... off
 Static damping         CNVDamp         .... on
   Fraction old density DampFac         ....    0.7000
   Max. Damping (<1)    DampMax         ....    0.9800
   Min. Damping (>=0)   DampMin         ....    0.0000
   Turn off err/grad.   DampErr         ....    0.1000
 Fernandez-Rico         CNVRico         .... off

SCF Procedure:
 Maximum # iterations   MaxIter         ....   125
 SCF integral mode      SCFMode         .... Direct
   Integral package                     .... LIBINT
 Reset frequeny         DirectResetFreq ....    20
 Integral Threshold     Thresh          ....  2.500e-11 Eh
 Primitive CutOff       TCut            ....  2.500e-12 Eh

Convergence Tolerance:
 Convergence Check Mode ConvCheckMode   .... Total+1el-Energy
 Convergence forced     ConvForced      .... 0
 Energy Change          TolE            ....  1.000e-08 Eh
 1-El. energy change                    ....  1.000e-05 Eh
 Orbital Gradient       TolG            ....  1.000e-05
 Orbital Rotation angle TolX            ....  1.000e-05
 DIIS Error             TolErr          ....  5.000e-07


Diagonalization of the overlap matrix:
Smallest eigenvalue                        ... 2.675e-04
Time for diagonalization                   ...    0.013 sec
Threshold for overlap eigenvalues          ... 1.000e-08
Number of eigenvalues below threshold      ... 0
Time for construction of square roots      ...    0.005 sec
Total time needed                          ...    0.018 sec

-------------------
DFT GRID GENERATION
-------------------

General Integration Accuracy     IntAcc      ...  4.340
Radial Grid Type                 RadialGrid  ... Gauss-Chebyshev
Angular Grid (max. acc.)         AngularGrid ... Lebedev-110
Angular grid pruning method      GridPruning ... 3 (G Style)
Weight generation scheme         WeightScheme... Becke
Basis function cutoff            BFCut       ...    1.0000e-11
Integration weight cutoff        WCut        ...    1.0000e-14
Grids for H and He will be reduced by one unit

# of grid points (after initial pruning)     ...  30300 (   0.0 sec)
# of grid points (after weights+screening)   ...  27618 (   0.1 sec)
nearest neighbour list constructed           ...    0.0 sec
Grid point re-assignment to atoms done       ...    0.0 sec
Grid point division into batches done        ...    0.0 sec
Reduced shell lists constructed in    0.1 sec

Total number of grid points                  ...    27618
Total number of batches                      ...      446
Average number of points per batch           ...       61
Average number of grid points per atom       ...     1105
Average number of shells per batch           ...    79.18 (71.33%)
Average number of basis functions per batch  ...   163.41 (70.13%)
Average number of large shells per batch     ...    60.86 (76.86%)
Average number of large basis fcns per batch ...   125.88 (77.04%)
Maximum spatial batch extension              ...  13.77, 15.35, 17.12 au
Average spatial batch extension              ...   0.55,  0.59,  0.72 au

Time for grid setup =    0.170 sec

------------------------------
INITIAL GUESS: MODEL POTENTIAL
------------------------------
Loading Hartree-Fock densities                     ... done
Calculating cut-offs                               ... done
Setting up the integral package                    ... done
Initializing the effective Hamiltonian             ... done
Starting the Coulomb interaction                   ... done (   0.1 sec)
Reading the grid                                   ... done
Mapping shells                                     ... done
Starting the XC term evaluation                    ... done (   0.1 sec)
  promolecular density results
     # of electrons  =     87.981994262
     EX              =    -69.668726471
     EC              =     -2.916020235
     EX+EC           =    -72.584746706
Transforming the Hamiltonian                       ... done (   0.0 sec)
Diagonalizing the Hamiltonian                      ... done (   0.0 sec)
Back transforming the eigenvectors                 ... done (   0.0 sec)
Now organizing SCF variables                       ... done
                      ------------------
                      INITIAL GUESS DONE (   0.5 sec)
                      ------------------
--------------------
COSX GRID GENERATION
--------------------

General Integration Accuracy     IntAcc      ...  3.340
Radial Grid Type                 RadialGrid  ... Gauss-Chebyshev
Angular Grid (max. acc.)         AngularGrid ... Lebedev-50
Angular grid pruning method      GridPruning ... 3 (G Style)
Weight generation scheme         WeightScheme... Becke
Basis function cutoff            BFCut       ...    1.0000e-11
Integration weight cutoff        WCut        ...    1.0000e-14
Grids for H and He will be reduced by one unit

# of grid points (after initial pruning)     ...  11106 (   0.0 sec)
# of grid points (after weights+screening)   ...  10218 (   0.0 sec)
nearest neighbour list constructed           ...    0.0 sec
Grid point re-assignment to atoms done       ...    0.0 sec
Grid point division into batches done        ...    0.0 sec
Reduced shell lists constructed in    0.0 sec

Total number of grid points                  ...    10218
Total number of batches                      ...      170
Average number of points per batch           ...       60
Average number of grid points per atom       ...      409
Average number of shells per batch           ...    83.25 (75.00%)
Average number of basis functions per batch  ...   173.11 (74.30%)
Average number of large shells per batch     ...    64.16 (77.07%)
Average number of large basis fcns per batch ...   133.80 (77.29%)
Maximum spatial batch extension              ...   4.29,  4.45, 10.12 au
Average spatial batch extension              ...   0.64,  0.62,  0.86 au

Overlap Fitting                  UseSFitting ... on
Constructing numerical overlap ... done (      0.0 sec)
Inverting numerical overlap    ... done (      0.0 sec)
Obtaining analytic overlap     ... done (      0.0 sec)
Final contraction and storage  ... done (      0.0 sec)


General Integration Accuracy     IntAcc      ...  3.670
Radial Grid Type                 RadialGrid  ... Gauss-Chebyshev
Angular Grid (max. acc.)         AngularGrid ... Lebedev-50
Angular grid pruning method      GridPruning ... 3 (G Style)
Weight generation scheme         WeightScheme... Becke
Basis function cutoff            BFCut       ...    1.0000e-11
Integration weight cutoff        WCut        ...    1.0000e-14
Grids for H and He will be reduced by one unit

# of grid points (after initial pruning)     ...  14164 (   0.0 sec)
# of grid points (after weights+screening)   ...  13004 (   0.0 sec)
nearest neighbour list constructed           ...    0.0 sec
Grid point re-assignment to atoms done       ...    0.0 sec
Grid point division into batches done        ...    0.0 sec
Reduced shell lists constructed in    0.0 sec

Total number of grid points                  ...    13004
Total number of batches                      ...      213
Average number of points per batch           ...       61
Average number of grid points per atom       ...      520
Average number of shells per batch           ...    81.29 (73.24%)
Average number of basis functions per batch  ...   168.53 (72.33%)
Average number of large shells per batch     ...    62.25 (76.58%)
Average number of large basis fcns per batch ...   129.67 (76.94%)
Maximum spatial batch extension              ...   8.69, 14.97, 19.83 au
Average spatial batch extension              ...   0.70,  0.74,  1.01 au

Overlap Fitting                  UseSFitting ... on
Constructing numerical overlap ... done (      0.0 sec)
Inverting numerical overlap    ... done (      0.0 sec)
Obtaining analytic overlap     ... done (      0.0 sec)
Final contraction and storage  ... done (      0.0 sec)


General Integration Accuracy     IntAcc      ...  4.010
Radial Grid Type                 RadialGrid  ... Gauss-Chebyshev
Angular Grid (max. acc.)         AngularGrid ... Lebedev-110
Angular grid pruning method      GridPruning ... 3 (G Style)
Weight generation scheme         WeightScheme... Becke
Basis function cutoff            BFCut       ...    1.0000e-11
Integration weight cutoff        WCut        ...    1.0000e-14
Grids for H and He will be reduced by one unit

# of grid points (after initial pruning)     ...  26254 (   0.0 sec)
# of grid points (after weights+screening)   ...  23997 (   0.0 sec)
nearest neighbour list constructed           ...    0.0 sec
Grid point re-assignment to atoms done       ...    0.0 sec
Grid point division into batches done        ...    0.0 sec
Reduced shell lists constructed in    0.1 sec

Total number of grid points                  ...    23997
Total number of batches                      ...      386
Average number of points per batch           ...       62
Average number of grid points per atom       ...      960
Average number of shells per batch           ...    80.46 (72.49%)
Average number of basis functions per batch  ...   166.34 (71.39%)
Average number of large shells per batch     ...    62.07 (77.15%)
Average number of large basis fcns per batch ...   129.26 (77.71%)
Maximum spatial batch extension              ...   8.90, 10.22, 16.44 au
Average spatial batch extension              ...   0.51,  0.55,  0.67 au

Overlap Fitting                  UseSFitting ... on
Constructing numerical overlap ... done (      0.0 sec)
Inverting numerical overlap    ... done (      0.0 sec)
Obtaining analytic overlap     ... done (      0.0 sec)
Final contraction and storage  ... done (      0.0 sec)

Time for X-Grid setup             =    0.480 sec
--------------
SCF ITERATIONS
--------------
ITER       Energy         Delta-E        Max-DP      RMS-DP      [F,P]     Damp
               ***  Starting incremental Fock matrix formation  ***
  0   -517.6318551528   0.000000000000 0.09180014  0.00210779  0.2507608 0.7000
  1   -517.7553999855  -0.123544832745 0.05884699  0.00144146  0.1010222 0.7000
                               ***Turning on DIIS***
  2   -517.8073024216  -0.051902436139 0.06630030  0.00243632  0.0374032 0.0000
  3   -517.8878764006  -0.080573978970 0.04526354  0.00095597  0.0530374 0.0000
  4   -517.9044949537  -0.016618553135 0.01232569  0.00028425  0.0132793 0.0000
  5   -517.9055549207  -0.001059966988 0.00402157  0.00009395  0.0069979 0.0000
                      *** Initiating the SOSCF procedure ***
                           *** Shutting down DIIS ***
                      *** Re-Reading the Fockian *** 
                      *** Removing any level shift *** 
ITER      Energy       Delta-E        Grad      Rot      Max-DP    RMS-DP
  6   -517.90564850  -0.0000935776  0.000214  0.000214  0.001876  0.000046
               *** Restarting incremental Fock matrix formation ***
  7   -517.90563444   0.0000140592  0.000323  0.001135  0.001605  0.000029
  8   -517.90562955   0.0000048903  0.000596  0.000757  0.000996  0.000019
  9   -517.90563672  -0.0000071719  0.000047  0.000110  0.000338  0.000006
 10   -517.90563658   0.0000001363  0.000079  0.000070  0.000197  0.000004
 11   -517.90563680  -0.0000002190  0.000009  0.000037  0.000046  0.000001
 12   -517.90563679   0.0000000093  0.000019  0.000027  0.000028  0.000001
                  ***Gradient check signals convergence***
              ***Rediagonalizing the Fockian in SOSCF/NRSCF***

               *****************************************************
               *                     SUCCESS                       *
               *           SCF CONVERGED AFTER  13 CYCLES          *
               *****************************************************

Setting up the final grid:

General Integration Accuracy     IntAcc      ...  4.670
Radial Grid Type                 RadialGrid  ... Gauss-Chebyshev
Angular Grid (max. acc.)         AngularGrid ... Lebedev-302
Angular grid pruning method      GridPruning ... 3 (G Style)
Weight generation scheme         WeightScheme... Becke
Basis function cutoff            BFCut       ...    1.0000e-11
Integration weight cutoff        WCut        ...    1.0000e-14
Grids for H and He will be reduced by one unit

# of grid points (after initial pruning)     ... 118666 (   0.0 sec)
# of grid points (after weights+screening)   ... 106275 (   0.2 sec)
nearest neighbour list constructed           ...    0.0 sec
Grid point re-assignment to atoms done       ...    0.0 sec
Grid point division into batches done        ...    0.4 sec
Reduced shell lists constructed in    0.7 sec

Total number of grid points                  ...   106275
Total number of batches                      ...     1674
Average number of points per batch           ...       63
Average number of grid points per atom       ...     4251
Average number of shells per batch           ...    75.02 (67.58%)
Average number of basis functions per batch  ...   153.62 (65.93%)
Average number of large shells per batch     ...    56.03 (74.69%)
Average number of large basis fcns per batch ...   114.63 (74.62%)
Maximum spatial batch extension              ...  11.36, 13.27, 15.35 au
Average spatial batch extension              ...   0.37,  0.38,  0.42 au

Final grid set up in    0.9 sec
Final integration                            ... done (   0.5 sec)
Change in XC energy                          ...     0.000169516
Integrated number of electrons               ...    87.999961010
Previous integrated no of electrons          ...    87.995428634
Old exchange energy                            =    -17.795748231 Eh
New exchange energy                            =    -17.795848307 Eh
Exchange energy change after final integration =     -0.000100076 Eh
Total energy after final integration           =   -517.905567365 Eh
Final COS-X integration done in                =     3.659 sec

----------------
TOTAL SCF ENERGY
----------------

Total Energy       :         -517.90556737 Eh          -14092.92696 eV

Components:
Nuclear Repulsion  :          675.57699041 Eh           18383.38450 eV
Electronic Energy  :        -1193.48255778 Eh          -32476.31146 eV
One Electron Energy:        -2040.99196649 Eh          -55538.21492 eV
Two Electron Energy:          847.50940871 Eh           23061.90346 eV

Virial components:
Potential Energy   :        -1030.52623514 Eh          -28042.04449 eV
Kinetic Energy     :          512.62066777 Eh           13949.11753 eV
Virial Ratio       :            2.01030957


DFT components:
N(Alpha)           :       43.999980504784 electrons
N(Beta)            :       43.999980504784 electrons
N(Total)           :       87.999961009567 electrons
E(X)               :      -53.212180868895 Eh       
E(C)               :       -2.936609807606 Eh       
E(XC)              :      -56.148790676500 Eh       

---------------
SCF CONVERGENCE
---------------

  Last Energy change         ...   -1.1051e-08  Tolerance :   1.0000e-08
  Last MAX-Density change    ...    3.9801e-14  Tolerance :   1.0000e-07
  Last RMS-Density change    ...    2.8075e-16  Tolerance :   5.0000e-09
  Last Orbital Gradient      ...    1.3537e-06  Tolerance :   1.0000e-05
  Last Orbital Rotation      ...    3.4614e-06  Tolerance :   1.0000e-05

             **** THE GBW FILE WAS UPDATED (/scratch/1796902.1.multiway.q/MeArCONMe2.gbw) ****
             **** DENSITY FILE WAS UPDATED (/scratch/1796902.1.multiway.q/MeArCONMe2.scfp.tmp) ****
             **** ENERGY FILE WAS UPDATED (/scratch/1796902.1.multiway.q/MeArCONMe2.en.tmp) ****
----------------
ORBITAL ENERGIES
----------------

  NO   OCC          E(Eh)            E(eV) 
   0   2.0000     -19.165924      -521.5313 
   1   2.0000     -14.421958      -392.4414 
   2   2.0000     -10.325538      -280.9722 
   3   2.0000     -10.270797      -279.4826 
   4   2.0000     -10.258459      -279.1469 
   5   2.0000     -10.251306      -278.9522 
   6   2.0000     -10.246156      -278.8121 
   7   2.0000     -10.245480      -278.7937 
   8   2.0000     -10.241396      -278.6826 
   9   2.0000     -10.240573      -278.6602 
  10   2.0000     -10.238952      -278.6160 
  11   2.0000     -10.237876      -278.5868 
  12   2.0000      -1.051160       -28.6035 
  13   2.0000      -0.953091       -25.9349 
  14   2.0000      -0.883387       -24.0382 
  15   2.0000      -0.802383       -21.8339 
  16   2.0000      -0.765331       -20.8257 
  17   2.0000      -0.741119       -20.1669 
  18   2.0000      -0.725512       -19.7422 
  19   2.0000      -0.693002       -18.8576 
  20   2.0000      -0.626665       -17.0524 
  21   2.0000      -0.611571       -16.6417 
  22   2.0000      -0.565621       -15.3913 
  23   2.0000      -0.541158       -14.7257 
  24   2.0000      -0.498445       -13.5634 
  25   2.0000      -0.489936       -13.3318 
  26   2.0000      -0.481963       -13.1149 
  27   2.0000      -0.475312       -12.9339 
  28   2.0000      -0.452912       -12.3244 
  29   2.0000      -0.438097       -11.9212 
  30   2.0000      -0.435189       -11.8421 
  31   2.0000      -0.417197       -11.3525 
  32   2.0000      -0.414392       -11.2762 
  33   2.0000      -0.412719       -11.2307 
  34   2.0000      -0.403574       -10.9818 
  35   2.0000      -0.396368       -10.7857 
  36   2.0000      -0.383778       -10.4431 
  37   2.0000      -0.368224       -10.0199 
  38   2.0000      -0.366434        -9.9712 
  39   2.0000      -0.351685        -9.5698 
  40   2.0000      -0.275368        -7.4931 
  41   2.0000      -0.268787        -7.3141 
  42   2.0000      -0.251763        -6.8508 
  43   2.0000      -0.247542        -6.7360 
  44   0.0000      -0.022479        -0.6117 
  45   0.0000      -0.007184        -0.1955 
  46   0.0000       0.053179         1.4471 
  47   0.0000       0.062563         1.7024 
  48   0.0000       0.076448         2.0803 
  49   0.0000       0.095989         2.6120 
  50   0.0000       0.106621         2.9013 
  51   0.0000       0.117463         3.1963 
  52   0.0000       0.124577         3.3899 
  53   0.0000       0.127515         3.4699 
  54   0.0000       0.137099         3.7306 
  55   0.0000       0.147285         4.0078 
  56   0.0000       0.158021         4.3000 
  57   0.0000       0.161637         4.3984 
  58   0.0000       0.167177         4.5491 
  59   0.0000       0.170327         4.6348 
  60   0.0000       0.179838         4.8936 
  61   0.0000       0.185423         5.0456 
  62   0.0000       0.224463         6.1080 
  63   0.0000       0.228026         6.2049 
  64   0.0000       0.272884         7.4256 
  65   0.0000       0.288863         7.8604 
  66   0.0000       0.305066         8.3013 
  67   0.0000       0.312459         8.5024 
  68   0.0000       0.320405         8.7187 
  69   0.0000       0.343046         9.3348 
  70   0.0000       0.372193        10.1279 
  71   0.0000       0.395243        10.7551 
  72   0.0000       0.402837        10.9618 
  73   0.0000       0.416968        11.3463 
  74   0.0000       0.422458        11.4957 
  75   0.0000       0.431352        11.7377 
  76   0.0000       0.446367        12.1463 
  77   0.0000       0.455653        12.3990 
  78   0.0000       0.456662        12.4264 
  79   0.0000       0.466082        12.6827 
  80   0.0000       0.469542        12.7769 
  81   0.0000       0.507361        13.8060 
  82   0.0000       0.514280        13.9943 
  83   0.0000       0.520561        14.1652 
  84   0.0000       0.534272        14.5383 
  85   0.0000       0.565314        15.3830 
  86   0.0000       0.580589        15.7986 
  87   0.0000       0.592463        16.1217 
  88   0.0000       0.606345        16.4995 
  89   0.0000       0.618759        16.8373 
  90   0.0000       0.625029        17.0079 
  91   0.0000       0.633241        17.2314 
  92   0.0000       0.643988        17.5238 
  93   0.0000       0.650009        17.6876 
  94   0.0000       0.653881        17.7930 
  95   0.0000       0.657257        17.8849 
  96   0.0000       0.658844        17.9280 
  97   0.0000       0.669347        18.2139 
  98   0.0000       0.676038        18.3959 
  99   0.0000       0.679602        18.4929 
 100   0.0000       0.685456        18.6522 
 101   0.0000       0.691230        18.8093 
 102   0.0000       0.693301        18.8657 
 103   0.0000       0.698418        19.0049 
 104   0.0000       0.710209        19.3258 
 105   0.0000       0.719769        19.5859 
 106   0.0000       0.722893        19.6709 
 107   0.0000       0.727812        19.8048 
 108   0.0000       0.740406        20.1475 
 109   0.0000       0.751443        20.4478 
 110   0.0000       0.765506        20.8305 
 111   0.0000       0.777194        21.1485 
 112   0.0000       0.790358        21.5067 
 113   0.0000       0.804569        21.8934 
 114   0.0000       0.837325        22.7848 
 115   0.0000       0.846726        23.0406 
 116   0.0000       0.852256        23.1911 
 117   0.0000       0.878072        23.8936 
 118   0.0000       0.898415        24.4471 
 119   0.0000       0.948598        25.8127 
 120   0.0000       0.987824        26.8801 
 121   0.0000       0.994874        27.0719 
 122   0.0000       1.017402        27.6849 
 123   0.0000       1.048791        28.5391 
 124   0.0000       1.096592        29.8398 
 125   0.0000       1.131980        30.8027 
 126   0.0000       1.148465        31.2513 
 127   0.0000       1.159757        31.5586 
 128   0.0000       1.174001        31.9462 
 129   0.0000       1.198535        32.6138 
 130   0.0000       1.237725        33.6802 
 131   0.0000       1.247696        33.9515 
 132   0.0000       1.269462        34.5438 
 133   0.0000       1.271599        34.6020 
 134   0.0000       1.282161        34.8894 
 135   0.0000       1.318235        35.8710 
 136   0.0000       1.334709        36.3193 
 137   0.0000       1.358234        36.9594 
 138   0.0000       1.381520        37.5931 
 139   0.0000       1.452703        39.5301 
 140   0.0000       1.476992        40.1910 
 141   0.0000       1.483514        40.3685 
 142   0.0000       1.515850        41.2484 
 143   0.0000       1.534613        41.7590 
 144   0.0000       1.540735        41.9255 
 145   0.0000       1.549431        42.1621 
 146   0.0000       1.557433        42.3799 
 147   0.0000       1.565303        42.5941 
 148   0.0000       1.589520        43.2530 
 149   0.0000       1.625567        44.2339 
 150   0.0000       1.668439        45.4005 
 151   0.0000       1.705514        46.4094 
 152   0.0000       1.715343        46.6768 
 153   0.0000       1.727087        46.9964 
 154   0.0000       1.735396        47.2225 
 155   0.0000       1.749168        47.5973 
 156   0.0000       1.761148        47.9233 
 157   0.0000       1.765240        48.0346 
 158   0.0000       1.770814        48.1863 
 159   0.0000       1.782128        48.4942 
 160   0.0000       1.797209        48.9045 
 161   0.0000       1.806227        49.1499 
 162   0.0000       1.809927        49.2506 
 163   0.0000       1.818149        49.4744 
 164   0.0000       1.823149        49.6104 
 165   0.0000       1.831503        49.8377 
 166   0.0000       1.847019        50.2599 
 167   0.0000       1.863170        50.6994 
 168   0.0000       1.868273        50.8383 
 169   0.0000       1.891668        51.4749 
 170   0.0000       1.902854        51.7793 
 171   0.0000       1.926804        52.4310 
 172   0.0000       1.959295        53.3151 
 173   0.0000       1.978786        53.8455 
 174   0.0000       1.995303        54.2950 
 175   0.0000       2.003520        54.5186 
 176   0.0000       2.028682        55.2032 
 177   0.0000       2.037173        55.4343 
 178   0.0000       2.043604        55.6093 
 179   0.0000       2.059647        56.0459 
 180   0.0000       2.076633        56.5081 
 181   0.0000       2.097330        57.0712 
 182   0.0000       2.137088        58.1531 
 183   0.0000       2.151354        58.5413 
 184   0.0000       2.161738        58.8239 
 185   0.0000       2.186707        59.5033 
 186   0.0000       2.193771        59.6955 
 187   0.0000       2.247806        61.1659 
 188   0.0000       2.282886        62.1205 
 189   0.0000       2.294591        62.4390 
 190   0.0000       2.304357        62.7047 
 191   0.0000       2.314172        62.9718 
 192   0.0000       2.324895        63.2636 
 193   0.0000       2.356517        64.1241 
 194   0.0000       2.357371        64.1473 
 195   0.0000       2.393862        65.1403 
 196   0.0000       2.413059        65.6627 
 197   0.0000       2.433804        66.2272 
 198   0.0000       2.472040        67.2676 
 199   0.0000       2.495524        67.9067 
 200   0.0000       2.504593        68.1534 
 201   0.0000       2.556606        69.5688 
 202   0.0000       2.597196        70.6733 
 203   0.0000       2.623632        71.3927 
 204   0.0000       2.646408        72.0124 
 205   0.0000       2.653372        72.2019 
 206   0.0000       2.664038        72.4922 
 207   0.0000       2.668169        72.6046 
 208   0.0000       2.674069        72.7651 
 209   0.0000       2.681939        72.9793 
 210   0.0000       2.743814        74.6630 
 211   0.0000       2.745589        74.7113 
 212   0.0000       2.763120        75.1883 
 213   0.0000       2.820173        76.7408 
 214   0.0000       2.845666        77.4345 
 215   0.0000       2.851835        77.6024 
 216   0.0000       2.884860        78.5010 
 217   0.0000       2.906493        79.0897 
 218   0.0000       2.908124        79.1341 
 219   0.0000       2.934147        79.8422 
 220   0.0000       2.947637        80.2093 
 221   0.0000       2.960030        80.5465 
 222   0.0000       2.980829        81.1125 
 223   0.0000       2.997671        81.5708 
 224   0.0000       3.024188        82.2923 
 225   0.0000       3.096801        84.2682 
 226   0.0000       3.132525        85.2403 
 227   0.0000       3.196184        86.9726 
 228   0.0000       3.233978        88.0010 
 229   0.0000       3.317428        90.2718 
 230   0.0000       3.477951        94.6399 
 231   0.0000       3.641236        99.0831 
 232   0.0000       3.688348       100.3650 

                    ********************************
                    * MULLIKEN POPULATION ANALYSIS *
                    ********************************

-----------------------
MULLIKEN ATOMIC CHARGES
-----------------------
   0 C :   -0.028457
   1 C :   -0.098380
   2 C :    0.019687
   3 C :   -0.126212
   4 C :   -0.002194
   5 C :   -0.026509
   6 H :    0.005657
   7 C :    0.009358
   8 H :    0.008041
   9 H :    0.024505
  10 C :    0.260801
  11 H :    0.014107
  12 O :   -0.281399
  13 N :   -0.389096
  14 C :    0.061776
  15 C :    0.050989
  16 H :    0.043333
  17 H :    0.081062
  18 H :    0.044388
  19 H :    0.084125
  20 H :    0.044460
  21 H :    0.042837
  22 H :    0.036033
  23 H :    0.061606
  24 H :    0.059483
Sum of atomic charges:   -0.0000000

--------------------------------
MULLIKEN REDUCED ORBITAL CHARGES
--------------------------------
  0 C s       :     3.206281  s :     3.206281
      pz      :     0.984150  p :     2.787999
      px      :     0.868944
      py      :     0.934906
      dz2     :     0.002840  d :     0.034177
      dxz     :     0.004841
      dyz     :     0.005112
      dx2y2   :     0.010086
      dxy     :     0.011298
  1 C s       :     3.052133  s :     3.052133
      pz      :     0.972088  p :     3.001821
      px      :     1.009784
      py      :     1.019948
      dz2     :     0.004257  d :     0.044426
      dxz     :     0.007415
      dyz     :     0.006377
      dx2y2   :     0.013156
      dxy     :     0.013222
  2 C s       :     3.209793  s :     3.209793
      pz      :     0.956690  p :     2.735580
      px      :     0.920889
      py      :     0.858002
      dz2     :     0.002997  d :     0.034940
      dxz     :     0.007110
      dyz     :     0.003242
      dx2y2   :     0.011380
      dxy     :     0.010211
  3 C s       :     3.057351  s :     3.057351
      pz      :     1.023181  p :     3.028725
      px      :     1.020803
      py      :     0.984741
      dz2     :     0.004328  d :     0.040136
      dxz     :     0.004876
      dyz     :     0.006479
      dx2y2   :     0.011696
      dxy     :     0.012758
  4 C s       :     3.206267  s :     3.206267
      pz      :     0.967182  p :     2.760820
      px      :     0.869486
      py      :     0.924151
      dz2     :     0.002914  d :     0.035107
      dxz     :     0.005188
      dyz     :     0.005571
      dx2y2   :     0.010150
      dxy     :     0.011284
  5 C s       :     3.190678  s :     3.190678
      pz      :     0.991493  p :     2.801441
      px      :     0.937449
      py      :     0.872499
      dz2     :     0.002981  d :     0.034390
      dxz     :     0.006860
      dyz     :     0.003250
      dx2y2   :     0.011430
      dxy     :     0.009868
  6 H s       :     0.970833  s :     0.970833
      pz      :     0.005824  p :     0.023510
      px      :     0.003507
      py      :     0.014179
  7 C s       :     2.976929  s :     2.976929
      pz      :     1.026289  p :     2.986941
      px      :     0.962968
      py      :     0.997684
      dz2     :     0.005304  d :     0.026772
      dxz     :     0.006433
      dyz     :     0.003056
      dx2y2   :     0.006653
      dxy     :     0.005326
  8 H s       :     0.968514  s :     0.968514
      pz      :     0.005746  p :     0.023446
      px      :     0.010649
      py      :     0.007051
  9 H s       :     0.951697  s :     0.951697
      pz      :     0.005018  p :     0.023798
      px      :     0.003630
      py      :     0.015151
 10 C s       :     2.996376  s :     2.996376
      pz      :     0.841395  p :     2.623508
      px      :     0.917472
      py      :     0.864642
      dz2     :     0.018416  d :     0.119315
      dxz     :     0.019607
      dyz     :     0.017602
      dx2y2   :     0.022513
      dxy     :     0.041176
 11 H s       :     0.962388  s :     0.962388
      pz      :     0.005915  p :     0.023504
      px      :     0.010703
      py      :     0.006886
 12 O s       :     3.761448  s :     3.761448
      pz      :     1.421246  p :     4.501931
      px      :     1.746996
      py      :     1.333689
      dz2     :     0.003278  d :     0.018020
      dxz     :     0.000975
      dyz     :     0.005994
      dx2y2   :     0.004789
      dxy     :     0.002986
 13 N s       :     3.442171  s :     3.442171
      pz      :     1.439809  p :     3.919281
      px      :     1.142633
      py      :     1.336840
      dz2     :     0.004362  d :     0.027644
      dxz     :     0.005732
      dyz     :     0.004175
      dx2y2   :     0.006116
      dxy     :     0.007258
 14 C s       :     3.012027  s :     3.012027
      pz      :     0.920571  p :     2.885198
      px      :     1.063490
      py      :     0.901137
      dz2     :     0.009703  d :     0.040999
      dxz     :     0.005578
      dyz     :     0.011436
      dx2y2   :     0.008602
      dxy     :     0.005679
 15 C s       :     3.016358  s :     3.016358
      pz      :     1.047590  p :     2.892813
      px      :     0.837217
      py      :     1.008005
      dz2     :     0.005105  d :     0.039841
      dxz     :     0.009099
      dyz     :     0.006842
      dx2y2   :     0.006781
      dxy     :     0.012013
 16 H s       :     0.933908  s :     0.933908
      pz      :     0.005010  p :     0.022760
      px      :     0.007060
      py      :     0.010690
 17 H s       :     0.894472  s :     0.894472
      pz      :     0.004970  p :     0.024466
      px      :     0.014904
      py      :     0.004592
 18 H s       :     0.932693  s :     0.932693
      pz      :     0.011103  p :     0.022919
      px      :     0.007441
      py      :     0.004375
 19 H s       :     0.890773  s :     0.890773
      pz      :     0.009852  p :     0.025102
      px      :     0.004352
      py      :     0.010897
 20 H s       :     0.932705  s :     0.932705
      pz      :     0.006728  p :     0.022835
      px      :     0.007555
      py      :     0.008553
 21 H s       :     0.934298  s :     0.934298
      pz      :     0.011323  p :     0.022865
      px      :     0.004927
      py      :     0.006616
 22 H s       :     0.940143  s :     0.940143
      pz      :     0.006023  p :     0.023824
      px      :     0.004096
      py      :     0.013705
 23 H s       :     0.914019  s :     0.914019
      pz      :     0.008616  p :     0.024374
      px      :     0.008471
      py      :     0.007288
 24 H s       :     0.916279  s :     0.916279
      pz      :     0.013397  p :     0.024238
      px      :     0.005709
      py      :     0.005133


                     *******************************
                     * LOEWDIN POPULATION ANALYSIS *
                     *******************************

----------------------
LOEWDIN ATOMIC CHARGES
----------------------
   0 C :   -0.031945
   1 C :   -0.027277
   2 C :   -0.000417
   3 C :   -0.071275
   4 C :   -0.022731
   5 C :   -0.037131
   6 H :    0.031152
   7 C :   -0.061011
   8 H :    0.032543
   9 H :    0.040434
  10 C :    0.073467
  11 H :    0.033531
  12 O :   -0.217669
  13 N :   -0.064421
  14 C :    0.016126
  15 C :    0.014995
  16 H :    0.021896
  17 H :    0.037638
  18 H :    0.025276
  19 H :    0.039954
  20 H :    0.024115
  21 H :    0.022935
  22 H :    0.033961
  23 H :    0.043216
  24 H :    0.042637

-------------------------------
LOEWDIN REDUCED ORBITAL CHARGES
-------------------------------
  0 C s       :     2.860410  s :     2.860410
      pz      :     0.988692  p :     3.081466
      px      :     1.047415
      py      :     1.045359
      dz2     :     0.006499  d :     0.090068
      dxz     :     0.010474
      dyz     :     0.011592
      dx2y2   :     0.028734
      dxy     :     0.032769
  1 C s       :     2.855077  s :     2.855077
      pz      :     0.955263  p :     3.063705
      px      :     1.044127
      py      :     1.064316
      dz2     :     0.009237  d :     0.108495
      dxz     :     0.014738
      dyz     :     0.014510
      dx2y2   :     0.034826
      dxy     :     0.035184
  2 C s       :     2.859883  s :     2.859883
      pz      :     0.957291  p :     3.049116
      px      :     1.052762
      py      :     1.039062
      dz2     :     0.006928  d :     0.091418
      dxz     :     0.015941
      dyz     :     0.006586
      dx2y2   :     0.032971
      dxy     :     0.028993
  3 C s       :     2.860533  s :     2.860533
      pz      :     0.997835  p :     3.106424
      px      :     1.043902
      py      :     1.064686
      dz2     :     0.009981  d :     0.104318
      dxz     :     0.010636
      dyz     :     0.014869
      dx2y2   :     0.032520
      dxy     :     0.036311
  4 C s       :     2.860450  s :     2.860450
      pz      :     0.976596  p :     3.070154
      px      :     1.051738
      py      :     1.041820
      dz2     :     0.006736  d :     0.092127
      dxz     :     0.011359
      dyz     :     0.012488
      dx2y2   :     0.028762
      dxy     :     0.032782
  5 C s       :     2.860367  s :     2.860367
      pz      :     0.994484  p :     3.086180
      px      :     1.058345
      py      :     1.033351
      dz2     :     0.006903  d :     0.090585
      dxz     :     0.015672
      dyz     :     0.007063
      dx2y2   :     0.032714
      dxy     :     0.028233
  6 H s       :     0.900585  s :     0.900585
      pz      :     0.017176  p :     0.068263
      px      :     0.011389
      py      :     0.039698
  7 C s       :     2.836555  s :     2.836555
      pz      :     1.071203  p :     3.153626
      px      :     1.025428
      py      :     1.056995
      dz2     :     0.014482  d :     0.070830
      dxz     :     0.016184
      dyz     :     0.007759
      dx2y2   :     0.018004
      dxy     :     0.014401
  8 H s       :     0.899355  s :     0.899355
      pz      :     0.016928  p :     0.068101
      px      :     0.030119
      py      :     0.021055
  9 H s       :     0.890349  s :     0.890349
      pz      :     0.015111  p :     0.069217
      px      :     0.011681
      py      :     0.042425
 10 C s       :     2.832638  s :     2.832638
      pz      :     0.876527  p :     2.822265
      px      :     0.975967
      py      :     0.969771
      dz2     :     0.036383  d :     0.271630
      dxz     :     0.044085
      dyz     :     0.039905
      dx2y2   :     0.053801
      dxy     :     0.097455
 11 H s       :     0.897839  s :     0.897839
      pz      :     0.017425  p :     0.068631
      px      :     0.030405
      py      :     0.020800
 12 O s       :     3.548917  s :     3.548917
      pz      :     1.450719  p :     4.637991
      px      :     1.749572
      py      :     1.437700
      dz2     :     0.004270  d :     0.030760
      dxz     :     0.001471
      dyz     :     0.011272
      dx2y2   :     0.009028
      dxy     :     0.004720
 13 N s       :     3.075394  s :     3.075394
      pz      :     1.413362  p :     3.924471
      px      :     1.178341
      py      :     1.332767
      dz2     :     0.009143  d :     0.064556
      dxz     :     0.012830
      dyz     :     0.009112
      dx2y2   :     0.015603
      dxy     :     0.017869
 14 C s       :     2.834800  s :     2.834800
      pz      :     0.989774  p :     3.047019
      px      :     1.086145
      py      :     0.971100
      dz2     :     0.023516  d :     0.102055
      dxz     :     0.014436
      dyz     :     0.028066
      dx2y2   :     0.021848
      dxy     :     0.014189
 15 C s       :     2.836181  s :     2.836181
      pz      :     1.080719  p :     3.049943
      px      :     0.917932
      py      :     1.051291
      dz2     :     0.011998  d :     0.098882
      dxz     :     0.022375
      dyz     :     0.018471
      dx2y2   :     0.015898
      dxy     :     0.030141
 16 H s       :     0.913230  s :     0.913230
      pz      :     0.014231  p :     0.064874
      px      :     0.018954
      py      :     0.031689
 17 H s       :     0.892910  s :     0.892910
      pz      :     0.014035  p :     0.069452
      px      :     0.042286
      py      :     0.013131
 18 H s       :     0.909829  s :     0.909829
      pz      :     0.032467  p :     0.064895
      px      :     0.019927
      py      :     0.012501
 19 H s       :     0.886973  s :     0.886973
      pz      :     0.027958  p :     0.073073
      px      :     0.013689
      py      :     0.031425
 20 H s       :     0.910756  s :     0.910756
      pz      :     0.017673  p :     0.065129
      px      :     0.022618
      py      :     0.024838
 21 H s       :     0.912154  s :     0.912154
      pz      :     0.032208  p :     0.064910
      px      :     0.014738
      py      :     0.017965
 22 H s       :     0.900303  s :     0.900303
      pz      :     0.015577  p :     0.065736
      px      :     0.011883
      py      :     0.038276
 23 H s       :     0.890232  s :     0.890232
      pz      :     0.022427  p :     0.066552
      px      :     0.024577
      py      :     0.019549
 24 H s       :     0.891361  s :     0.891361
      pz      :     0.036899  p :     0.066003
      px      :     0.016484
      py      :     0.012620


                      *****************************
                      * MAYER POPULATION ANALYSIS *
                      *****************************

  NA   - Mulliken gross atomic population
  ZA   - Total nuclear charge
  QA   - Mulliken gross atomic charge
  VA   - Mayer's total valence
  BVA  - Mayer's bonded valence
  FA   - Mayer's free valence

  ATOM       NA         ZA         QA         VA         BVA        FA
  0 C      6.0285     6.0000    -0.0285     3.8579     3.8579     0.0000
  1 C      6.0984     6.0000    -0.0984     3.9683     3.9683     0.0000
  2 C      5.9803     6.0000     0.0197     3.9191     3.9191     0.0000
  3 C      6.1262     6.0000    -0.1262     3.7814     3.7814    -0.0000
  4 C      6.0022     6.0000    -0.0022     3.8888     3.8888    -0.0000
  5 C      6.0265     6.0000    -0.0265     3.8933     3.8933    -0.0000
  6 H      0.9943     1.0000     0.0057     0.9895     0.9895     0.0000
  7 C      5.9906     6.0000     0.0094     3.9076     3.9076    -0.0000
  8 H      0.9920     1.0000     0.0080     0.9894     0.9894     0.0000
  9 H      0.9755     1.0000     0.0245     0.9964     0.9964    -0.0000
 10 C      5.7392     6.0000     0.2608     4.1303     4.1303    -0.0000
 11 H      0.9859     1.0000     0.0141     0.9915     0.9915     0.0000
 12 O      8.2814     8.0000    -0.2814     2.2444     2.2444    -0.0000
 13 N      7.3891     7.0000    -0.3891     3.2039     3.2039    -0.0000
 14 C      5.9382     6.0000     0.0618     3.9047     3.9047    -0.0000
 15 C      5.9490     6.0000     0.0510     3.8939     3.8939    -0.0000
 16 H      0.9567     1.0000     0.0433     0.9819     0.9819     0.0000
 17 H      0.9189     1.0000     0.0811     0.9982     0.9982     0.0000
 18 H      0.9556     1.0000     0.0444     0.9884     0.9884    -0.0000
 19 H      0.9159     1.0000     0.0841     1.0319     1.0319    -0.0000
 20 H      0.9555     1.0000     0.0445     0.9858     0.9858    -0.0000
 21 H      0.9572     1.0000     0.0428     0.9877     0.9877     0.0000
 22 H      0.9640     1.0000     0.0360     0.9957     0.9957     0.0000
 23 H      0.9384     1.0000     0.0616     0.9851     0.9851     0.0000
 24 H      0.9405     1.0000     0.0595     0.9839     0.9839    -0.0000

  Mayer bond orders larger than 0.1
B(  0-C ,  1-C ) :   1.3730 B(  0-C ,  2-C ) :   1.3976 B(  0-C ,  8-H ) :   0.9890 
B(  1-C ,  5-C ) :   1.4066 B(  1-C ,  7-C ) :   1.0568 B(  2-C ,  3-C ) :   1.3927 
B(  2-C ,  9-H ) :   0.9856 B(  3-C ,  4-C ) :   1.3816 B(  3-C , 10-C ) :   0.9169 
B(  4-C ,  5-C ) :   1.3907 B(  4-C , 11-H ) :   0.9836 B(  5-C ,  6-H ) :   0.9789 
B(  7-C , 22-H ) :   0.9620 B(  7-C , 23-H ) :   0.9553 B(  7-C , 24-H ) :   0.9574 
B( 10-C , 12-O ) :   2.0290 B( 10-C , 13-N ) :   1.1545 B( 13-N , 14-C ) :   0.9771 
B( 13-N , 15-C ) :   0.9673 B( 14-C , 16-H ) :   0.9673 B( 14-C , 17-H ) :   0.9613 
B( 14-C , 18-H ) :   0.9645 B( 15-C , 19-H ) :   0.9556 B( 15-C , 20-H ) :   0.9706 
B( 15-C , 21-H ) :   0.9707 

-------
TIMINGS
-------

Total SCF time: 0 days 0 hours 0 min 34 sec 

Total time                  ....      34.200 sec
Sum of individual times     ....      34.093 sec  ( 99.7%)

Fock matrix formation       ....      31.940 sec  ( 93.4%)
  Split-RI-J                ....       4.221 sec  ( 13.2% of F)
  Chain of spheres X        ....      25.449 sec  ( 79.7% of F)
  COS-X 1 center corr.      ....       0.000 sec  (  0.0% of F)
  XC integration            ....       2.222 sec  (  7.0% of F)
    Basis function eval.    ....       0.728 sec  ( 32.8% of XC)
    Density eval.           ....       0.491 sec  ( 22.1% of XC)
    XC-Functional eval.     ....       0.115 sec  (  5.2% of XC)
    XC-Potential eval.      ....       0.813 sec  ( 36.6% of XC)
Diagonalization             ....       0.119 sec  (  0.3%)
Density matrix formation    ....       0.010 sec  (  0.0%)
Population analysis         ....       0.029 sec  (  0.1%)
Initial guess               ....       0.330 sec  (  1.0%)
Orbital Transformation      ....       0.000 sec  (  0.0%)
Orbital Orthonormalization  ....       0.000 sec  (  0.0%)
DIIS solution               ....       0.034 sec  (  0.1%)
SOSCF solution              ....       0.079 sec  (  0.2%)
Grid generation             ....       1.553 sec  (  4.5%)


-------------------------------------------------------------------------------
                          DFT DISPERSION CORRECTION                            
                                                                               
                              DFTD3 V3.1  Rev 1                                
                          USING Becke-Johnson damping                          
-------------------------------------------------------------------------------
The PBE0 functional is recognized
Active option DFTDOPT                   ...         4   

molecular C6(AA) [au] = 6109.399883 


            DFT-D V3
 parameters
 s6 scaling factor         :     1.0000 
 a1 scaling factor         :     0.4145 
 s8 scaling factor         :     1.2177 
 a2 scaling factor         :     4.8593 
 ad hoc parameters k1-k3   :    16.0000     1.3333    -4.0000 

 Edisp/kcal,au: -14.771915289997  -0.023540542932 
 E6   /kcal   :  -9.354548650 
 E8   /kcal   :  -5.417366640 
 % E8         :  36.673420704 

-------------------------   ----------------
Dispersion correction           -0.023540543
-------------------------   ----------------


-------------------------   --------------------
FINAL SINGLE POINT ENERGY      -517.929107908025
-------------------------   --------------------



           ************************************************************
           *        Program running with 4 parallel MPI-processes     *
           *              working on a common directory               *
           ************************************************************
------------------------------------------------------------------------------
                         ORCA SCF GRADIENT CALCULATION
------------------------------------------------------------------------------

Gradient of the Kohn-Sham DFT energy:
Kohn-Sham wavefunction type      ... RKS
Hartree-Fock exchange scaling    ...    0.250
Number of operators              ...    1
Number of atoms                  ...   25
Basis set dimensions             ...  233
Integral neglect threshold       ... 2.5e-11
Integral primitive cutoff        ... 2.5e-12

Nuclear repulsion gradient       ... done
One Electron Gradient            ... done
Pre-screening matrix             ... done
RI-J gradient                    ... done
COSX-gradient                    ... done
Exchange-correlation gradient    ... done
Dispersion correction            ... done

------------------
CARTESIAN GRADIENT
------------------

   1   C   :   -0.000098560   -0.000564549    0.000280886
   2   C   :   -0.000661709    0.001491825   -0.000616550
   3   C   :    0.000735802   -0.000070067    0.000400740
   4   C   :   -0.000362129    0.000572632    0.000413912
   5   C   :   -0.000524898   -0.000734676    0.000437076
   6   C   :    0.000321327   -0.000370404    0.000062968
   7   H   :   -0.000036471    0.000028949   -0.000240949
   8   C   :   -0.000392497   -0.000045987   -0.001942569
   9   H   :   -0.000080687    0.000005374   -0.000196419
  10   H   :   -0.000136131   -0.000022997    0.000027067
  11   C   :   -0.000185883    0.000045002   -0.000001925
  12   H   :   -0.000140422    0.000031311    0.000038736
  13   O   :   -0.000025069    0.000008688    0.000180755
  14   N   :   -0.000112523   -0.000058243    0.000184370
  15   C   :   -0.000058677    0.000006099    0.000141942
  16   C   :   -0.000173162   -0.000000618    0.000228118
  17   H   :   -0.000132531   -0.000031404    0.000157436
  18   H   :   -0.000189351   -0.000038610    0.000153256
  19   H   :   -0.000159563   -0.000056051    0.000153651
  20   H   :   -0.000096064   -0.000022027    0.000178092
  21   H   :   -0.000054240   -0.000078491    0.000165415
  22   H   :   -0.000102968   -0.000031397    0.000215339
  23   H   :   -0.000136478   -0.000336815    0.001250074
  24   H   :    0.000385379   -0.000403917   -0.000096210
  25   H   :   -0.000107295   -0.001214412    0.000694697

Difference to translation invariance:
           :   -0.0025247986   -0.0018907851    0.0022699067

Norm of the cartesian gradient     ...    0.0038234033
RMS gradient                       ...    0.0004414886
MAX gradient                       ...    0.0019425692

-------
TIMINGS
-------

[...]
     42      -0.000607  -0.000021  -0.000015  -0.059755   0.064032  -0.002358
     43      -0.013419  -0.000005  -0.000028  -0.008060   0.008692  -0.000373
     44      -0.015033   0.000001   0.000005   0.010325  -0.010953   0.000427
     45      -0.021009  -0.000010   0.000020  -0.002005   0.002415  -0.000120
     46       0.055751   0.000009  -0.000005   0.005811  -0.006579   0.000414
     47       0.069185  -0.000000  -0.000004  -0.004724   0.005334  -0.000346
     48      -0.069610   0.000030  -0.000148   0.058062  -0.061092   0.001917
     49       0.112389  -0.000046   0.000244  -0.115161   0.122306  -0.004004
     50       0.053035  -0.000033   0.000107  -0.053639   0.056844  -0.001892
     51      -0.002100   0.000239   0.000345   0.601216  -0.644391   0.024132
     52      -0.004071   0.000063   0.000046   0.160185  -0.171087   0.006316
     53      -0.003101  -0.000067  -0.000081  -0.164340   0.177000  -0.006675
     54       0.078762   0.000030  -0.000026   0.057301  -0.062946   0.002245
     55       0.048743   0.000026   0.000010   0.041391  -0.045567   0.001658
     56       0.125084   0.000039  -0.000029   0.107915  -0.117187   0.004062
     57      -0.016137  -0.000007   0.000014   0.010076  -0.011451   0.000832
     58       0.086201   0.000022  -0.000001  -0.058190   0.065491  -0.004278
     59      -0.058046  -0.000019   0.000000   0.053855  -0.060601   0.003943
     60       0.493148   0.000127  -0.000214   0.013811  -0.016496   0.000642
     61      -0.519889  -0.000115   0.000212  -0.014273   0.017101  -0.000751
     62      -0.262516  -0.000070   0.000116  -0.008583   0.010195  -0.000457
     63      -0.231110  -0.000005  -0.000041   0.004994  -0.005956   0.000228
     64      -0.224942  -0.000008  -0.000028   0.006670  -0.007768   0.000340
     65      -0.499243  -0.000030  -0.000049   0.010814  -0.012764   0.000565
     66       0.000005   0.002310   0.007277   0.002040   0.002093   0.000850
     67       0.000014  -0.174329   0.770475   0.020217   0.019533  -0.014964
     68      -0.000008  -0.068779   0.378577   0.009552   0.009237  -0.007421
     69      -0.000116  -0.463315  -0.298794  -0.003182  -0.002609   0.012448
     70       0.000089   0.408158   0.256732   0.003767   0.003391  -0.008457
     71      -0.000081  -0.312633  -0.220283  -0.002666  -0.002273   0.008370
     72      -0.000122   0.219846  -0.062922  -0.000764  -0.000302   0.002838
     73      -0.000058   0.070657  -0.038159  -0.000327  -0.000121   0.002145
     74       0.000354  -0.651147   0.208420   0.004121   0.003259  -0.006435
                  72         73         74    
      0      -0.000231  -0.002348   0.022953
      1       0.000122   0.002336  -0.011658
      2       0.000072   0.001102  -0.007540
      3      -0.000000  -0.002409   0.000515
      4       0.000004   0.000968   0.001444
      5       0.000001   0.000697   0.000412
      6       0.000084  -0.000906  -0.011591
      7       0.000246  -0.004287  -0.081600
      8       0.000049  -0.001006  -0.020060
      9      -0.000060   0.000534  -0.003029
     10      -0.000004   0.003310   0.001545
     11      -0.000036   0.000938   0.000947
     12      -0.000008   0.058324  -0.001364
     13      -0.000081  -0.038755   0.001392
     14      -0.000074  -0.023187   0.000738
     15       0.000061  -0.008750   0.000352
     16       0.000294  -0.047449   0.003671
     17       0.000075  -0.014072   0.001128
     18      -0.000467   0.068926  -0.004951
     19      -0.003444   0.522053  -0.039114
     20      -0.001068   0.160462  -0.012200
     21      -0.000007   0.000133   0.000132
     22       0.000031  -0.001103  -0.000104
     23       0.000005  -0.000543   0.000046
     24       0.002235   0.029770  -0.219607
     25      -0.001591  -0.021708   0.151194
     26      -0.000855  -0.011724   0.083106
     27      -0.000357   0.007137   0.116834
     28      -0.002833   0.051499   0.920316
     29      -0.000691   0.012512   0.226442
     30      -0.000401   0.000601  -0.000089
     31      -0.000528  -0.000160  -0.000970
     32       0.000128  -0.000199   0.000242
     33      -0.001001  -0.641002   0.015549
     34       0.000618   0.449665  -0.011525
     35       0.000466   0.262045  -0.006645
     36       0.000736  -0.000169  -0.000057
     37       0.000040  -0.000144   0.000434
     38       0.000134   0.000099  -0.000159
     39       0.000375  -0.000251   0.000180
     40      -0.000104   0.000078   0.000106
     41       0.000262   0.000010  -0.000021
     42      -0.011184  -0.004457   0.000049
     43      -0.001109  -0.000727  -0.000014
     44       0.001879   0.000788  -0.000130
     45       0.027140  -0.000132   0.000053
     46      -0.065408   0.000424  -0.000278
     47       0.056389  -0.000310   0.000219
     48       0.012054   0.002766  -0.000189
     49      -0.022149  -0.006729   0.000231
     50      -0.011029  -0.003022   0.000170
     51       0.114180   0.046086  -0.001108
     52       0.030642   0.011488  -0.000331
     53      -0.031729  -0.013146   0.000104
     54       0.011276   0.004860   0.000723
     55       0.008189   0.003846   0.000316
     56       0.019200   0.008217   0.000947
     57      -0.121358   0.000940  -0.000492
     58       0.684552  -0.003856   0.002644
     59      -0.632294   0.003517  -0.002437
     60      -0.158658   0.000739  -0.000370
     61       0.172835  -0.000945   0.000508
     62       0.094501  -0.000564   0.000242
     63      -0.058246   0.000122   0.000249
     64      -0.074128   0.000231   0.000068
     65      -0.139075   0.000302   0.000011
     66      -0.000014   0.001647  -0.000804
     67      -0.000265   0.012202  -0.001214
     68      -0.000138   0.005676  -0.000468
     69       0.000065   0.000006  -0.001888
     70      -0.000047   0.001407   0.000700
     71       0.000040  -0.000649  -0.001094
     72      -0.000021   0.000522  -0.000651
     73       0.000003   0.000165  -0.000591
     74      -0.000011   0.001157   0.000588


-----------
IR SPECTRUM
-----------

 Mode    freq (cm**-1)   T**2         TX         TY         TZ
-------------------------------------------------------------------
   7:        48.74    2.180972  ( -0.118815   0.554984   1.363396)
   8:        77.11    0.629568  (  0.355523   0.629378  -0.327192)
   9:        85.53    1.726939  ( -0.973181  -0.847091  -0.249592)
  10:       115.94    0.213055  ( -0.171054   0.241765  -0.354042)
  11:       161.94    0.276573  (  0.291163  -0.334023   0.283242)
  12:       201.40    1.537242  ( -1.234489  -0.069334  -0.092046)
  13:       216.84    0.336993  (  0.426917  -0.191404   0.343656)
  14:       279.99    4.986932  ( -0.634438   1.566118   1.460032)
  15:       302.67    1.478281  (  1.003112   0.315762   0.610197)
  16:       348.92    2.136364  (  1.230611   0.296898   0.730624)
  17:       360.86    5.615253  (  2.252865  -0.449304  -0.581358)
  18:       406.21    5.496728  (  2.316369   0.308184   0.190227)
  19:       423.94    1.529484  (  1.216051   0.212887   0.073362)
  20:       461.27   12.164462  ( -1.602903  -2.195891   2.184771)
  21:       564.65    6.902493  ( -1.644305  -0.399825  -2.009700)
  22:       601.32    9.992302  (  2.643132  -0.533729   1.649633)
  23:       647.85    0.725273  (  0.319264  -0.475774  -0.630065)
  24:       711.41    1.003146  ( -0.603078   0.572341   0.558452)
  25:       739.08    4.956171  (  1.218804   0.147234   1.857151)
  26:       774.93   25.338571  (  1.906156   0.637244   4.615091)
  27:       828.10    1.799648  ( -0.697007   0.728272  -0.885127)
  28:       859.28   15.335476  (  0.832330  -1.997518   3.263836)
  29:       866.49    2.590613  (  0.620321   0.824536  -1.235296)
  30:       963.11    0.589562  ( -0.131198  -0.659879   0.370012)
  31:       989.63    2.599229  ( -0.422917   0.589258  -1.439842)
  32:       997.75    1.287619  (  0.749129   0.525524  -0.671006)
  33:      1006.38    1.628394  (  1.220319   0.303731  -0.216712)
  34:      1036.81   16.824507  ( -3.996804  -0.328676  -0.861415)
  35:      1051.33    5.970652  ( -0.684528  -1.066566   2.089141)
  36:      1074.95    6.781643  (  2.335077   1.106583  -0.323318)
  37:      1103.23  117.410445  ( 10.182277  -1.706561   3.289275)
  38:      1118.29    0.048903  (  0.145128   0.114706   0.121175)
  39:      1133.33    6.033634  ( -0.777408   2.180135   0.822364)
  40:      1168.49    3.257472  (  1.327856  -1.014304  -0.682245)
  41:      1193.87    9.228722  ( -2.947446  -0.311096  -0.666712)
  42:      1250.72    3.381477  ( -1.509503   0.335750  -0.995063)
  43:      1265.78   43.896545  (  6.355641  -0.198750   1.860881)
  44:      1316.03    3.644046  (  1.874696   0.166039  -0.319360)
  45:      1335.95   52.255763  ( -6.604397  -2.806619   0.872122)
  46:      1382.21    4.005646  ( -1.990616   0.145863  -0.147713)
  47:      1394.71    0.332291  ( -0.102318  -0.162309   0.543579)
  48:      1405.98   12.919554  ( -1.677421  -2.217809   2.277528)
  49:      1435.82  107.998731  ( -9.836867   1.173366  -3.139743)
  50:      1443.03    2.967799  ( -1.496529  -0.766374  -0.375330)
  51:      1449.57   61.439064  (  7.493532   2.298994  -0.025870)
  52:      1456.51    8.217309  (  1.505099  -0.912613   2.262548)
  53:      1460.55    6.839527  ( -2.062505  -0.174480  -1.598486)
  54:      1468.74   23.718945  (  0.218778  -1.287972  -4.691717)
  55:      1472.76   14.268453  ( -2.642760   2.494777  -1.029738)
  56:      1479.79   13.027654  (  0.480940   3.519211   0.641487)
  57:      1535.69  134.834599  ( 11.284022  -0.731802   2.640059)
  58:      1569.20   32.347983  ( -4.905665   1.912556  -2.150479)
  59:      1650.67    1.831836  ( -0.369474  -1.175864   0.559167)
  60:      1703.04   27.364890  ( -4.828005  -2.012197  -0.079518)
  61:      1799.70  312.551777  ( -3.693643  14.363165  -9.623320)
  62:      3025.06   28.330426  (  0.803355   4.434401  -2.832161)
  63:      3031.09   98.062032  (  8.950804  -1.451184   3.979849)
  64:      3057.39   20.738423  ( -4.129848  -1.861970   0.464593)
  65:      3092.14   35.732133  (  0.016276   4.084175   4.364789)
  66:      3105.02   17.092054  ( -1.717296   2.398868   2.896270)
  67:      3139.80    7.241810  (  0.927818  -0.511119   2.473807)
  68:      3168.80    7.896405  (  0.191636  -2.655156  -0.899905)
  69:      3197.38    9.194939  ( -2.775573  -1.208688   0.173805)
  70:      3198.69    1.966007  ( -0.537657  -1.139669  -0.614888)
  71:      3200.32    7.690383  ( -2.279696   1.389464   0.750174)
  72:      3205.54    1.443612  ( -1.159694   0.207244  -0.236160)
  73:      3215.15    6.962686  (  0.829197  -2.367912  -0.817380)
  74:      3228.26    1.958876  (  0.875617  -0.942124  -0.551882)

The first frequency considered to be a vibration is 7
The total number of vibrations considered is 68


--------------------------
THERMOCHEMISTRY AT 298.15K
--------------------------

Temperature         ... 298.15 K
Pressure            ... 1.00 atm
Total Mass          ... 163.22 AMU

Throughout the following assumptions are being made:
  (1) The electronic state is orbitally nondegenerate
  (2) There are no thermally accessible electronically excited states
  (3) Hindered rotations indicated by low frequency modes are not
      treated as such but are treated as vibrations and this may
      cause some error
  (4) All equations used are the standard statistical mechanics
      equations for an ideal gas
  (5) All vibrations are strictly harmonic

freq.      48.74  E(vib)   ...       0.53 
freq.      77.11  E(vib)   ...       0.49 
freq.      85.53  E(vib)   ...       0.48 
freq.     115.94  E(vib)   ...       0.44 
freq.     161.94  E(vib)   ...       0.39 
freq.     201.40  E(vib)   ...       0.35 
freq.     216.84  E(vib)   ...       0.34 
freq.     279.99  E(vib)   ...       0.28 
freq.     302.67  E(vib)   ...       0.26 
freq.     348.92  E(vib)   ...       0.23 
freq.     360.86  E(vib)   ...       0.22 
freq.     406.21  E(vib)   ...       0.19 
freq.     423.94  E(vib)   ...       0.18 
freq.     461.27  E(vib)   ...       0.16 
freq.     564.65  E(vib)   ...       0.11 
freq.     601.32  E(vib)   ...       0.10 
freq.     647.85  E(vib)   ...       0.09 
freq.     711.41  E(vib)   ...       0.07 
freq.     739.08  E(vib)   ...       0.06 
freq.     774.93  E(vib)   ...       0.05 
freq.     828.10  E(vib)   ...       0.04 
freq.     859.28  E(vib)   ...       0.04 
freq.     866.49  E(vib)   ...       0.04 
freq.     963.11  E(vib)   ...       0.03 
freq.     989.63  E(vib)   ...       0.02 
freq.     997.75  E(vib)   ...       0.02 
freq.    1006.38  E(vib)   ...       0.02 
freq.    1036.81  E(vib)   ...       0.02 
freq.    1051.33  E(vib)   ...       0.02 
freq.    1074.95  E(vib)   ...       0.02 
freq.    1103.23  E(vib)   ...       0.02 
freq.    1118.29  E(vib)   ...       0.01 
freq.    1133.33  E(vib)   ...       0.01 
freq.    1168.49  E(vib)   ...       0.01 
freq.    1193.87  E(vib)   ...       0.01 
freq.    1250.72  E(vib)   ...       0.01 
freq.    1265.78  E(vib)   ...       0.01 
freq.    1316.03  E(vib)   ...       0.01 
freq.    1335.95  E(vib)   ...       0.01 
freq.    1382.21  E(vib)   ...       0.01 
freq.    1394.71  E(vib)   ...       0.00 
freq.    1405.98  E(vib)   ...       0.00 
freq.    1435.82  E(vib)   ...       0.00 
freq.    1443.03  E(vib)   ...       0.00 
freq.    1449.57  E(vib)   ...       0.00 
freq.    1456.51  E(vib)   ...       0.00 
freq.    1460.55  E(vib)   ...       0.00 
freq.    1468.74  E(vib)   ...       0.00 
freq.    1472.76  E(vib)   ...       0.00 
freq.    1479.79  E(vib)   ...       0.00 
freq.    1535.69  E(vib)   ...       0.00 
freq.    1569.20  E(vib)   ...       0.00 
freq.    1650.67  E(vib)   ...       0.00 
freq.    1703.04  E(vib)   ...       0.00 
freq.    1799.70  E(vib)   ...       0.00 
freq.    3025.06  E(vib)   ...       0.00 
freq.    3031.09  E(vib)   ...       0.00 
freq.    3057.39  E(vib)   ...       0.00 
freq.    3092.14  E(vib)   ...       0.00 
freq.    3105.02  E(vib)   ...       0.00 
freq.    3139.80  E(vib)   ...       0.00 
freq.    3168.80  E(vib)   ...       0.00 
freq.    3197.38  E(vib)   ...       0.00 
freq.    3198.69  E(vib)   ...       0.00 
freq.    3200.32  E(vib)   ...       0.00 
freq.    3205.54  E(vib)   ...       0.00 
freq.    3215.15  E(vib)   ...       0.00 
freq.    3228.26  E(vib)   ...       0.00 

------------
INNER ENERGY
------------

The inner energy is: U= E(el) + E(ZPE) + E(vib) + E(rot) + E(trans)
    E(el)   - is the total energy from the electronic structure calculation
              = E(kin-el) + E(nuc-el) + E(el-el) + E(nuc-nuc)
    E(ZPE)  - the the zero temperature vibrational energy from the frequency calculation
    E(vib)  - the the finite temperature correction to E(ZPE) due to population
              of excited vibrational states
    E(rot)  - is the rotational thermal energy
    E(trans)- is the translational thermal energy

Summary of contributions to the inner energy U:
Electronic energy                ...   -517.92914574 Eh
Zero point energy                ...      0.21201250 Eh     133.04 kcal/mol
Thermal vibrational correction   ...      0.00866165 Eh       5.44 kcal/mol
Thermal rotational correction    ...      0.00141627 Eh       0.89 kcal/mol
Thermal translational correction ...      0.00141627 Eh       0.89 kcal/mol
-----------------------------------------------------------------------
Total thermal energy                   -517.70563905 Eh


Summary of corrections to the electronic energy:
(perhaps to be used in another calculation)
Total thermal correction                  0.01149419 Eh       7.21 kcal/mol
Non-thermal (ZPE) correction              0.21201250 Eh     133.04 kcal/mol
-----------------------------------------------------------------------
Total correction                          0.22350669 Eh     140.25 kcal/mol


--------
ENTHALPY
--------

The enthalpy is H = U + kB*T
                kB is Boltzmann's constant
Total free energy                 ...   -517.70563905 Eh 
Thermal Enthalpy correction       ...      0.00094421 Eh       0.59 kcal/mol
-----------------------------------------------------------------------
Total Enthalpy                    ...   -517.70469484 Eh


Vibrational entropy computed according to the QRRHO of S. Grimme
Chem.Eur.J. 2012 18 9955


-------
ENTROPY
-------

The entropy contributions are T*S = T*(S(el)+S(vib)+S(rot)+S(trans)
     S(el)   - electronic entropy
     S(vib)  - vibrational entropy
     S(rot)  - rotational entropy
     S(trans)- translational entropy
The entropies will be listed as mutliplied by the temperature to get
units of energy

Electronic entropy                ...      0.00000000 Eh      0.00 kcal/mol
Vibrational entropy               ...      0.01497837 Eh      9.40 kcal/mol
Rotational entropy                ...      0.01357657 Eh      8.52 kcal/mol
Translational entropy             ...      0.01956511 Eh     12.28 kcal/mol
-----------------------------------------------------------------------
Final entropy term                ...      0.04812006 Eh     30.20 kcal/mol


CAUTION: The rotational entropy is not quite correctly treated here
         because it includes a symmetry number that is not yet correctly
         implemented in ORCA!
For a nonlinear molecule the correct rotational entropy is:
    S(rot) = R*(ln(qrot/sn)+1.5)
    R    = 8.31441 J/mol/K = 1.987191683e-3 kcal/mol/K
    qrot = 1176223.2194652
    sn is the rotational symmetry number. We have assumed 3 here
       if it is different for your molecule then you should correct
       the printed rotational entropy by manually evaluating the equation
       as given above

For convenience we print out the resulting values for sn=1 - 12:
 sn= 1  qrot/sn= 1176223.2195 T*S(rot)=     9.17 kcal/mol T*S(tot)=    30.85 kcal/mol
 sn= 2  qrot/sn=  588111.6097 T*S(rot)=     8.76 kcal/mol T*S(tot)=    30.44 kcal/mol
 sn= 3  qrot/sn=  392074.4065 T*S(rot)=     8.52 kcal/mol T*S(tot)=    30.20 kcal/mol
 sn= 4  qrot/sn=  294055.8049 T*S(rot)=     8.35 kcal/mol T*S(tot)=    30.03 kcal/mol
 sn= 5  qrot/sn=  235244.6439 T*S(rot)=     8.22 kcal/mol T*S(tot)=    29.89 kcal/mol
 sn= 6  qrot/sn=  196037.2032 T*S(rot)=     8.11 kcal/mol T*S(tot)=    29.79 kcal/mol
 sn= 7  qrot/sn=  168031.8885 T*S(rot)=     8.02 kcal/mol T*S(tot)=    29.69 kcal/mol
 sn= 8  qrot/sn=  147027.9024 T*S(rot)=     7.94 kcal/mol T*S(tot)=    29.61 kcal/mol
 sn= 9  qrot/sn=  130691.4688 T*S(rot)=     7.87 kcal/mol T*S(tot)=    29.54 kcal/mol
 sn=10  qrot/sn=  117622.3219 T*S(rot)=     7.81 kcal/mol T*S(tot)=    29.48 kcal/mol
 sn=11  qrot/sn=  106929.3836 T*S(rot)=     7.75 kcal/mol T*S(tot)=    29.43 kcal/mol
 sn=12  qrot/sn=   98018.6016 T*S(rot)=     7.70 kcal/mol T*S(tot)=    29.37 kcal/mol


-------------------
GIBBS FREE ENTHALPY
-------------------

The Gibbs free enthalpy is G = H - T*S

Total enthalpy                    ...   -517.70469484 Eh 
Total entropy correction          ...     -0.04812006 Eh    -30.20 kcal/mol
-----------------------------------------------------------------------
Final Gibbs free enthalpy         ...   -517.75281490 Eh

For completeness - the Gibbs free enthalpy minus the electronic energy
G-E(el)                           ...      0.17633084 Eh    110.65 kcal/mol


Timings for individual modules:

Sum of individual times         ...     1175.491 sec (=  19.592 min)
GTO integral calculation        ...        4.066 sec (=   0.068 min)   0.3 %
SCF iterations                  ...      245.414 sec (=   4.090 min)  20.9 %
SCF Gradient evaluation         ...       87.277 sec (=   1.455 min)   7.4 %
Geometry relaxation             ...        1.997 sec (=   0.033 min)   0.2 %
Analytical frequency calculation...      836.736 sec (=  13.946 min)  71.2 %
                             ****ORCA TERMINATED NORMALLY****
TOTAL RUN TIME: 0 days 0 hours 19 minutes 38 seconds 761 msec
