
                                 *****************
                                 * O   R   C   A *
                                 *****************

           --- An Ab Initio, DFT and Semiempirical electronic structure package ---

                  #######################################################
                  #                        -***-                        #
                  #  Department of molecular theory and spectroscopy    #
                  #              Directorship: Frank Neese              #
                  # Max Planck Institute for Chemical Energy Conversion #
                  #                  D-45470 Muelheim/Ruhr              #
                  #                       Germany                       #
                  #                                                     #
                  #                  All rights reserved                #
                  #                        -***-                        #
                  #######################################################


                         Program Version 4.0.1.2 - RELEASE -


 With contributions from (in alphabetic order):
   Daniel Aravena         : Magnetic Properties
   Michael Atanasov       : Ab Initio Ligand Field Theory
   Ute Becker             : Parallelization
   Martin Brehm           : Molecular dynamics
   Dmytro Bykov           : SCF Hessian
   Vijay G. Chilkuri      : MRCI spin determinant printing
   Dipayan Datta          : RHF DLPNO-CCSD density
   Achintya Kumar Dutta   : EOM-CC, STEOM-CC
   Dmitry Ganyushin       : Spin-Orbit,Spin-Spin,Magnetic field MRCI
   Yang Guo               : DLPNO-NEVPT2, CIM, IAO-localization
   Andreas Hansen         : Spin unrestricted coupled pair/coupled cluster methods
   Lee Huntington         : MR-EOM, pCC
   Robert Izsak           : Overlap fitted RIJCOSX, COSX-SCS-MP3, EOM
   Christian Kollmar      : KDIIS, OOCD, Brueckner-CCSD(T), CCSD density
   Simone Kossmann        : Meta GGA functionals, TD-DFT gradient, OOMP2, MP2 Hessian
   Martin Krupicka        : AUTO-CI
   Dagmar Lenk            : GEPOL surface
   Dimitrios Liakos       : Extrapolation schemes; parallel MDCI
   Dimitrios Manganas     : ROCIS; embedding schemes
   Dimitrios Pantazis     : SARC Basis sets
   Taras Petrenko         : DFT Hessian,TD-DFT gradient, ASA, ECA, R-Raman, ABS, FL, XAS/XES, NRVS
   Peter Pinski           : DLPNO-MP2
   Christoph Reimann      : Effective Core Potentials
   Marius Retegan         : Local ZFS, SOC
   Christoph Riplinger    : Optimizer, TS searches, QM/MM, DLPNO-CCSD(T), (RO)-DLPNO pert. Triples
   Tobias Risthaus        : Range-separated hybrids, TD-DFT gradient, RPA, STAB
   Michael Roemelt        : Restricted open shell CIS
   Masaaki Saitow         : Open-shell DLPNO
   Barbara Sandhoefer     : DKH picture change effects
   Kantharuban Sivalingam : CASSCF convergence, NEVPT2, FIC-MRCI
   Georgi Stoychev        : AutoAux
   Boris Wezisla          : Elementary symmetry handling
   Frank Wennmohs         : Technical directorship


 We gratefully acknowledge several colleagues who have allowed us to
 interface, adapt or use parts of their codes:
   Stefan Grimme, W. Hujo, H. Kruse,             : VdW corrections, initial TS optimization,
                  C. Bannwarth                     DFT functionals, gCP, sTDA/sTD-DF
   Ed Valeev                                     : LibInt (2-el integral package), F12 methods
   Garnet Chan, S. Sharma, J. Yang, R. Olivares  : DMRG
   Ulf Ekstrom                                   : XCFun DFT Library
   Mihaly Kallay                                 : mrcc  (arbitrary order and MRCC methods)
   Andreas Klamt, Michael Diedenhofen            : otool_cosmo (COSMO solvation model)
   Jiri Pittner, Ondrej Demel                    : Mk-CCSD
   Frank Weinhold                                : gennbo (NPA and NBO analysis)
   Christopher J. Cramer and Donald G. Truhlar   : smd solvation model


 Your calculation uses the libint2 library for the computation of 2-el integrals
 For citations please refer to: http://libint.valeyev.net

 This ORCA versions uses:
   CBLAS   interface :  Fast vector & matrix operations
   LAPACKE interface :  Fast linear algebra routines
   SCALAPACK package :  Parallel linear algebra routines


Your calculation utilizes the atom-pairwise dispersion correction
with the Becke-Johnson damping scheme (D3BJ)
Cite in your paper:
S.Grimme, S.Ehrlich, L.Goerigk, J Comput Chem, (2011), 32, 1456–1465 
S.Grimme, J.Antony, S.Ehrlich and H.Krieg, J.Chem.Phys., 132, (2010), 154104 
   

Your calculation utilizes the basis: def2-SVP
   F. Weigend and R. Ahlrichs, Phys. Chem. Chem. Phys. 7, 3297 (2005).

Your calculation utilizes the auxiliary basis: def2/J
   F. Weigend, Phys. Chem. Chem. Phys. 8, 1057 (2006).

================================================================================
                                        WARNINGS
                       Please study these warnings very carefully!
================================================================================

Warning: TCutStore was < 0. Adjusted to Thresh (uncritical)

WARNING: Geometry Optimization
  ===> : Switching off AutoStart
         For restart on a previous wavefunction, please use MOREAD

INFO   : the flag for use of LIBINT has been found!

================================================================================
                                       INPUT FILE
================================================================================
NAME = /scratch/1796817.1.multiway.q/HArCOOMe_c1.inp
|  1> ! Opt PBE0 RIJCOSX D3BJ def2-SVP def2/J PAL4 Freq
|  2> %maxcore 4000 
|  3> *xyz 0 1
|  4> C         -1.96507        0.76098       -0.09222
|  5> C         -2.04571       -0.63172       -0.05199
|  6> C         -0.72456        1.38505       -0.02228
|  7> C          0.44032        0.61907        0.08408
|  8> C          0.35867       -0.77727        0.12118
|  9> C         -0.88547       -1.39840        0.05465
| 10> H         -0.95381       -2.48853        0.08890
| 11> H         -3.01911       -1.12554       -0.10805
| 12> H         -2.87286        1.36098       -0.18336
| 13> H         -0.62443        2.47242       -0.05063
| 14> C          1.73612        1.34100        0.16201
| 15> H          1.27243       -1.36670        0.20931
| 16> O          1.85228        2.54105        0.18350
| 17> O          2.86092        0.57972        0.23291
| 18> C          4.14162        1.08515        0.31915
| 19> H          4.86270        0.24333        0.36284
| 20> H          4.25029        1.69750        1.23980
| 21> H          4.36925        1.70544       -0.57403
| 22> *
| 23> 
| 24>                          ****END OF INPUT****
================================================================================

                       *****************************
                       * Geometry Optimization Run *
                       *****************************

Geometry optimization settings:
Update method            Update   .... BFGS
Choice of coordinates    CoordSys .... Redundant Internals
Initial Hessian          InHess   .... Almoef's Model

Convergence Tolerances:
Energy Change            TolE     ....  5.0000e-06 Eh
Max. Gradient            TolMAXG  ....  3.0000e-04 Eh/bohr
RMS Gradient             TolRMSG  ....  1.0000e-04 Eh/bohr
Max. Displacement        TolMAXD  ....  4.0000e-03 bohr
RMS Displacement         TolRMSD  ....  2.0000e-03 bohr

------------------------------------------------------------------------------
                        ORCA OPTIMIZATION COORDINATE SETUP
------------------------------------------------------------------------------

The optimization will be done in new redundant internal coordinates
Making redundant internal coordinates   ...  (new redundants) done
Evaluating the initial hessian          ...  (Almloef) done
Evaluating the coordinates              ...  done
Calculating the B-matrix                .... done
Calculating the G-matrix                .... done
Diagonalizing the G-matrix              .... done
Small eigenvalue found = 1.390e-02
The first mode is                       ....   31
The number of degrees of freedom        ....   48

    -----------------------------------------------------------------
                    Redundant Internal Coordinates


    -----------------------------------------------------------------
         Definition                    Initial Value    Approx d2E/dq
    -----------------------------------------------------------------
      1. B(C   1,C   0)                  1.3956         0.612046   
      2. B(C   2,C   0)                  1.3904         0.623873   
      3. B(C   3,C   2)                  1.3982         0.606240   
      4. B(C   4,C   3)                  1.3992         0.603995   
      5. B(C   5,C   4)                  1.3922         0.619855   
      6. B(C   5,C   1)                  1.3947         0.613989   
      7. B(H   6,C   5)                  1.0928         0.356406   
      8. B(H   7,C   1)                  1.0929         0.356237   
      9. B(H   8,C   0)                  1.0920         0.357509   
     10. B(H   9,C   2)                  1.0923         0.357020   
     11. B(C  10,C   3)                  1.4854         0.440115   
     12. B(H  11,C   4)                  1.0909         0.358858   
     13. B(O  12,C  10)                  1.2059         1.100714   
     14. B(O  13,C  10)                  1.3601         0.624671   
     15. B(C  14,O  13)                  1.3795         0.581551   
     16. B(H  15,C  14)                  1.1093         0.335464   
     17. B(H  16,C  14)                  1.1110         0.333333   
     18. B(H  17,C  14)                  1.1110         0.333351   
     19. A(C   1,C   0,C   2)          119.8682         0.433544   
     20. A(C   1,C   0,H   8)          120.1782         0.351709   
     21. A(C   2,C   0,H   8)          119.9529         0.352850   
     22. A(C   0,C   1,C   5)          120.1775         0.432301   
     23. A(C   5,C   1,H   7)          119.7645         0.351686   
     24. A(C   0,C   1,H   7)          120.0575         0.351497   
     25. A(C   3,C   2,H   9)          118.0956         0.351062   
     26. A(C   0,C   2,C   3)          120.0825         0.432802   
     27. A(C   0,C   2,H   9)          121.8217         0.352768   
     28. A(C   2,C   3,C  10)          117.6794         0.406696   
     29. A(C   2,C   3,C   4)          120.0069         0.430291   
     30. A(C   4,C   3,C  10)          122.3127         0.406429   
     31. A(C   3,C   4,C   5)          119.7441         0.432011   
     32. A(C   5,C   4,H  11)          120.7527         0.352689   
     33. A(C   3,C   4,H  11)          119.5017         0.351146   
     34. A(C   1,C   5,H   6)          119.9152         0.351714   
     35. A(C   1,C   5,C   4)          120.1203         0.433288   
     36. A(C   4,C   5,H   6)          119.9642         0.352280   
     37. A(O  12,C  10,O  13)          118.4540         0.476155   
     38. A(C   3,C  10,O  13)          116.8823         0.406224   
     39. A(C   3,C  10,O  12)          124.6566         0.449621   
     40. A(C  10,O  13,C  14)          124.4690         0.424097   
     41. A(H  16,C  14,H  17)          109.7808         0.283906   
     42. A(H  15,C  14,H  17)          108.7943         0.284188   
     43. A(O  13,C  14,H  17)          110.1516         0.342504   
     44. A(H  15,C  14,H  16)          108.7867         0.284185   
     45. A(O  13,C  14,H  16)          110.1537         0.342501   
     46. A(O  13,C  14,H  15)          109.1410         0.342867   
     47. D(H   7,C   1,C   0,H   8)     -0.2210         0.025882   
     48. D(C   5,C   1,C   0,H   8)    179.5341         0.025882   
     49. D(C   5,C   1,C   0,C   2)     -0.1654         0.025882   
     50. D(H   7,C   1,C   0,C   2)   -179.9205         0.025882   
     51. D(H   9,C   2,C   0,C   1)   -179.9788         0.026953   
     52. D(C   3,C   2,C   0,C   1)      0.1930         0.026953   
     53. D(H   9,C   2,C   0,H   8)      0.3210         0.026953   
     54. D(C   3,C   2,C   0,H   8)   -179.5072         0.026953   
     55. D(C  10,C   3,C   2,H   9)      0.4686         0.025365   
     56. D(C  10,C   3,C   2,C   0)   -179.6969         0.025365   
     57. D(C   4,C   3,C   2,H   9)   -179.8780         0.025365   
     58. D(C   4,C   3,C   2,C   0)     -0.0434         0.025365   
     59. D(H  11,C   4,C   3,C   2)   -179.6962         0.025167   
     60. D(C   5,C   4,C   3,C  10)    179.5025         0.025167   
     61. D(C   5,C   4,C   3,C   2)     -0.1344         0.025167   
     62. D(H  11,C   4,C   3,C  10)     -0.0593         0.025167   
     63. D(H   6,C   5,C   4,H  11)     -0.1057         0.026586   
     64. D(C   1,C   5,C   4,H  11)    179.7184         0.026586   
     65. D(C   1,C   5,C   4,C   3)      0.1622         0.026586   
     66. D(H   6,C   5,C   1,H   7)     -0.4327         0.026056   
     67. D(H   6,C   5,C   1,C   0)    179.8115         0.026056   
     68. D(H   6,C   5,C   4,C   3)   -179.6619         0.026586   
     69. D(C   4,C   5,C   1,H   7)    179.7430         0.026056   
     70. D(C   4,C   5,C   1,C   0)     -0.0128         0.026056   
     71. D(O  13,C  10,C   3,C   4)      1.8788         0.013217   
     72. D(O  13,C  10,C   3,C   2)   -178.4763         0.013217   
     73. D(O  12,C  10,C   3,C   4)   -177.1314         0.013217   
     74. D(O  12,C  10,C   3,C   2)      2.5134         0.013217   
     75. D(C  14,O  13,C  10,O  12)     -0.4870         0.028660   
     76. D(C  14,O  13,C  10,C   3)   -179.5610         0.028660   
     77. D(H  15,C  14,O  13,C  10)   -179.9814         0.027135   
     78. D(H  17,C  14,O  13,C  10)    -60.5993         0.027135   
     79. D(H  16,C  14,O  13,C  10)     60.6446         0.027135   
    -----------------------------------------------------------------

Number of atoms                         .... 18
Number of degrees of freedom            .... 79

         *************************************************************
         *                GEOMETRY OPTIMIZATION CYCLE   1            *
         *************************************************************
---------------------------------
CARTESIAN COORDINATES (ANGSTROEM)
---------------------------------
  C     -1.965070    0.760980   -0.092220
  C     -2.045710   -0.631720   -0.051990
  C     -0.724560    1.385050   -0.022280
  C      0.440320    0.619070    0.084080
  C      0.358670   -0.777270    0.121180
  C     -0.885470   -1.398400    0.054650
  H     -0.953810   -2.488530    0.088900
  H     -3.019110   -1.125540   -0.108050
  H     -2.872860    1.360980   -0.183360
  H     -0.624430    2.472420   -0.050630
  C      1.736120    1.341000    0.162010
  H      1.272430   -1.366700    0.209310
  O      1.852280    2.541050    0.183500
  O      2.860920    0.579720    0.232910
  C      4.141620    1.085150    0.319150
  H      4.862700    0.243330    0.362840
  H      4.250290    1.697500    1.239800
  H      4.369250    1.705440   -0.574030

----------------------------
CARTESIAN COORDINATES (A.U.)
----------------------------
  NO LB      ZA    FRAG     MASS         X           Y           Z
   0 C     6.0000    0    12.011   -3.713444    1.438044   -0.174271
   1 C     6.0000    0    12.011   -3.865832   -1.193778   -0.098247
   2 C     6.0000    0    12.011   -1.369220    2.617365   -0.042103
   3 C     6.0000    0    12.011    0.832084    1.169873    0.158888
   4 C     6.0000    0    12.011    0.677788   -1.468827    0.228997
   5 C     6.0000    0    12.011   -1.673296   -2.642593    0.103274
   6 H     1.0000    0     1.008   -1.802440   -4.702640    0.167997
   7 H     1.0000    0     1.008   -5.705291   -2.126962   -0.204185
   8 H     1.0000    0     1.008   -5.428919    2.571879   -0.346500
   9 H     1.0000    0     1.008   -1.180002    4.672197   -0.095677
  10 C     6.0000    0    12.011    3.280791    2.534123    0.306155
  11 H     1.0000    0     1.008    2.404544   -2.582689    0.395539
  12 O     8.0000    0    15.999    3.500302    4.801889    0.346765
  13 O     8.0000    0    15.999    5.406355    1.095512    0.440136
  14 C     6.0000    0    12.011    7.826528    2.050636    0.603106
  15 H     1.0000    0     1.008    9.189171    0.459827    0.685668
  16 H     1.0000    0     1.008    8.031884    3.207810    2.342882
  17 H     1.0000    0     1.008    8.256686    3.222815   -1.084759

--------------------------------
INTERNAL COORDINATES (ANGSTROEM)
--------------------------------
 C      0   0   0     0.000000000000     0.00000000     0.00000000
 C      1   0   0     1.395612608319     0.00000000     0.00000000
 C      1   2   0     1.390402829614   119.86819115     0.00000000
 C      3   1   2     1.398207146456   120.08250542     0.19298346
 C      4   3   1     1.399217112567   120.00691021   359.95656718
 C      5   4   3     1.392161290009   119.74412186   359.86560885
 H      6   5   4     1.092806860795   119.96420005   180.33805896
 H      2   1   3     1.092935714486   120.05750343   180.07947294
 H      1   2   3     1.091965742915   120.17823097   179.69953767
 H      3   1   2     1.092338434873   121.82170950   180.02124822
 C      4   3   1     1.485379968156   117.67944401   180.30314696
 H      5   4   3     1.090940859717   119.50169924   180.30380595
 O     11   4   3     1.205850309201   124.65659966     2.51343194
 O     11   4   3     1.360054810807   116.88226936   181.52369100
 C     14  11   4     1.379525031487   124.46902237   180.43898535
 H     15  14  11     1.109290807183   109.14098119   180.01859109
 H     15  14  11     1.111025703528   110.15365216    60.64459469
 H     15  14  11     1.111011077082   110.15155913   299.40069557

---------------------------
INTERNAL COORDINATES (A.U.)
---------------------------
 C      0   0   0     0.000000000000     0.00000000     0.00000000
 C      1   0   0     2.637325618771     0.00000000     0.00000000
 C      1   2   0     2.627480563801   119.86819115     0.00000000
 C      3   1   2     2.642228585293   120.08250542     0.19298346
 C      4   3   1     2.644137144647   120.00691021   359.95656718
 C      5   4   3     2.630803572364   119.74412186   359.86560885
 H      6   5   4     2.065105684172   119.96420005   180.33805896
 H      2   1   3     2.065349182361   120.05750343   180.07947294
 H      1   2   3     2.063516201733   120.17823097   179.69953767
 H      3   1   2     2.064220487465   121.82170950   180.02124822
 C      4   3   1     2.806961344628   117.67944401   180.30314696
 H      5   4   3     2.061579453170   119.50169924   180.30380595
 O     11   4   3     2.278726842894   124.65659966     2.51343194
 O     11   4   3     2.570131119548   116.88226936   181.52369100
 C     14  11   4     2.606924504400   124.46902237   180.43898535
 H     15  14  11     2.096255828452   109.14098119   180.01859109
 H     15  14  11     2.099534307415   110.15365216    60.64459469
 H     15  14  11     2.099506667439   110.15155913   299.40069557

---------------------
BASIS SET INFORMATION
---------------------
There are 3 groups of distinct atoms

 Group   1 Type C   : 7s4p1d contracted to 3s2p1d pattern {511/31/1}
 Group   2 Type H   : 4s1p contracted to 2s1p pattern {31/1}
 Group   3 Type O   : 7s4p1d contracted to 3s2p1d pattern {511/31/1}

Atom   0C    basis set group =>   1
Atom   1C    basis set group =>   1
Atom   2C    basis set group =>   1
Atom   3C    basis set group =>   1
Atom   4C    basis set group =>   1
Atom   5C    basis set group =>   1
Atom   6H    basis set group =>   2
Atom   7H    basis set group =>   2
Atom   8H    basis set group =>   2
Atom   9H    basis set group =>   2
Atom  10C    basis set group =>   1
Atom  11H    basis set group =>   2
Atom  12O    basis set group =>   3
Atom  13O    basis set group =>   3
Atom  14C    basis set group =>   1
Atom  15H    basis set group =>   2
Atom  16H    basis set group =>   2
Atom  17H    basis set group =>   2
-------------------------------
AUXILIARY BASIS SET INFORMATION
-------------------------------
There are 3 groups of distinct atoms

 Group   1 Type C   : 12s5p4d2f1g contracted to 6s4p3d1f1g pattern {711111/2111/211/2/1}
 Group   2 Type H   : 5s2p1d contracted to 3s1p1d pattern {311/2/1}
 Group   3 Type O   : 12s5p4d2f1g contracted to 6s4p3d1f1g pattern {711111/2111/211/2/1}

Atom   0C    basis set group =>   1
Atom   1C    basis set group =>   1
Atom   2C    basis set group =>   1
Atom   3C    basis set group =>   1
Atom   4C    basis set group =>   1
Atom   5C    basis set group =>   1
Atom   6H    basis set group =>   2
Atom   7H    basis set group =>   2
Atom   8H    basis set group =>   2
Atom   9H    basis set group =>   2
Atom  10C    basis set group =>   1
Atom  11H    basis set group =>   2
Atom  12O    basis set group =>   3
Atom  13O    basis set group =>   3
Atom  14C    basis set group =>   1
Atom  15H    basis set group =>   2
Atom  16H    basis set group =>   2
Atom  17H    basis set group =>   2


           ************************************************************
           *        Program running with 4 parallel MPI-processes     *
           *              working on a common directory               *
           ************************************************************
------------------------------------------------------------------------------
                           ORCA GTO INTEGRAL CALCULATION
                           -- RI-GTO INTEGRALS CHOSEN --
------------------------------------------------------------------------------

                         BASIS SET STATISTICS AND STARTUP INFO

Gaussian basis set:
 # of primitive gaussian shells          ...  160
 # of primitive gaussian functions       ...  296
 # of contracted shells                  ...   84
 # of contracted basis functions         ...  180
 Highest angular momentum                ...    2
 Maximum contraction depth               ...    5
Auxiliary gaussian basis set:
 # of primitive gaussian shells          ...  304
 # of primitive gaussian functions       ...  828
 # of contracted shells                  ...  190
 # of contracted aux-basis functions     ...  578
 Highest angular momentum                ...    4
 Maximum contraction depth               ...    7
Ratio of auxiliary to basis functions    ...  3.21
Integral package used                  ... LIBINT
 One Electron integrals                  ... done
 Ordering auxiliary basis shells         ... done
 Integral threshhold             Thresh  ...  2.500e-11
 Primitive cut-off               TCut    ...  2.500e-12
 Pre-screening matrix                    ... done
 Shell pair data                         ... 
 Ordering of the shell pairs             ... done (   0.001 sec) 3194 of 3570 pairs
 Determination of significant pairs      ... done (   0.000 sec)
 Creation of shell pair data             ... done (   0.001 sec)
 Storage of shell pair data              ... done (   0.001 sec)
 Shell pair data done in (   0.002 sec)
 Computing two index integrals           ... done
 Cholesky decomposition of the V-matrix  ... done


Timings:
 Total evaluation time                   ...   0.204 sec (  0.003 min)
 One electron matrix time                ...   0.022 sec (  0.000 min) = 10.9%
 Schwartz matrix evaluation time         ...   0.133 sec (  0.002 min) = 65.2%
 Two index repulsion integral time       ...   0.013 sec (  0.000 min) =  6.2%
 Cholesky decomposition of V             ...   0.012 sec (  0.000 min) =  5.8%
 Three index repulsion integral time     ...   0.000 sec (  0.000 min) =  0.0%



           ************************************************************
           *        Program running with 4 parallel MPI-processes     *
           *              working on a common directory               *
           ************************************************************
-------------------------------------------------------------------------------
                                 ORCA SCF
-------------------------------------------------------------------------------

------------
SCF SETTINGS
------------
Hamiltonian:
 Density Functional     Method          .... DFT(GTOs)
 Exchange Functional    Exchange        .... PBE
   PBE kappa parameter   XKappa         ....  0.804000
   PBE mue parameter    XMuePBE         ....  0.219520
 Correlation Functional Correlation     .... PBE
   PBE beta parameter  CBetaPBE         ....  0.066725
 LDA part of GGA corr.  LDAOpt          .... PW91-LDA
 Gradients option       PostSCFGGA      .... off
 Hybrid DFT is turned on
   Fraction HF Exchange ScalHFX         ....  0.250000
   Scaling of DF-GGA-X  ScalDFX         ....  0.750000
   Scaling of DF-GGA-C  ScalDFC         ....  1.000000
   Scaling of DF-LDA-C  ScalLDAC        ....  1.000000
   Perturbative correction              ....  0.000000
   NL short-range parameter             ....  6.900000
 RI-approximation to the Coulomb term is turned on
   Number of auxiliary basis functions  .... 578
   RIJ-COSX (HFX calculated with COS-X)).... on


General Settings:
 Integral files         IntName         .... /scratch/1796817.1.multiway.q/HArCOOMe_c1
 Hartree-Fock type      HFTyp           .... RHF
 Total Charge           Charge          ....    0
 Multiplicity           Mult            ....    1
 Number of Electrons    NEL             ....   72
 Basis Dimension        Dim             ....  180
 Nuclear Repulsion      ENuc            ....    487.9368138072 Eh

Convergence Acceleration:
 DIIS                   CNVDIIS         .... on
   Start iteration      DIISMaxIt       ....    12
   Startup error        DIISStart       ....  0.200000
   # of expansion vecs  DIISMaxEq       ....     5
   Bias factor          DIISBfac        ....   1.050
   Max. coefficient     DIISMaxC        ....  10.000
 Newton-Raphson         CNVNR           .... off
 SOSCF                  CNVSOSCF        .... on
   Start iteration      SOSCFMaxIt      ....   150
   Startup grad/error   SOSCFStart      ....  0.003300
 Level Shifting         CNVShift        .... on
   Level shift para.    LevelShift      ....    0.2500
   Turn off err/grad.   ShiftErr        ....    0.0010
 Zerner damping         CNVZerner       .... off
 Static damping         CNVDamp         .... on
   Fraction old density DampFac         ....    0.7000
   Max. Damping (<1)    DampMax         ....    0.9800
   Min. Damping (>=0)   DampMin         ....    0.0000
   Turn off err/grad.   DampErr         ....    0.1000
 Fernandez-Rico         CNVRico         .... off

SCF Procedure:
 Maximum # iterations   MaxIter         ....   125
 SCF integral mode      SCFMode         .... Direct
   Integral package                     .... LIBINT
 Reset frequeny         DirectResetFreq ....    20
 Integral Threshold     Thresh          ....  2.500e-11 Eh
 Primitive CutOff       TCut            ....  2.500e-12 Eh

Convergence Tolerance:
 Convergence Check Mode ConvCheckMode   .... Total+1el-Energy
 Convergence forced     ConvForced      .... 0
 Energy Change          TolE            ....  1.000e-08 Eh
 1-El. energy change                    ....  1.000e-05 Eh
 Orbital Gradient       TolG            ....  1.000e-05
 Orbital Rotation angle TolX            ....  1.000e-05
 DIIS Error             TolErr          ....  5.000e-07


Diagonalization of the overlap matrix:
Smallest eigenvalue                        ... 2.959e-04
Time for diagonalization                   ...    0.007 sec
Threshold for overlap eigenvalues          ... 1.000e-08
Number of eigenvalues below threshold      ... 0
Time for construction of square roots      ...    0.002 sec
Total time needed                          ...    0.010 sec

-------------------
DFT GRID GENERATION
-------------------

General Integration Accuracy     IntAcc      ...  4.340
Radial Grid Type                 RadialGrid  ... Gauss-Chebyshev
Angular Grid (max. acc.)         AngularGrid ... Lebedev-110
Angular grid pruning method      GridPruning ... 3 (G Style)
Weight generation scheme         WeightScheme... Becke
Basis function cutoff            BFCut       ...    1.0000e-11
Integration weight cutoff        WCut        ...    1.0000e-14
Grids for H and He will be reduced by one unit

# of grid points (after initial pruning)     ...  23032 (   0.0 sec)
# of grid points (after weights+screening)   ...  21319 (   0.0 sec)
nearest neighbour list constructed           ...    0.0 sec
Grid point re-assignment to atoms done       ...    0.0 sec
Grid point division into batches done        ...    0.0 sec
Reduced shell lists constructed in    0.1 sec

Total number of grid points                  ...    21319
Total number of batches                      ...      339
Average number of points per batch           ...       62
Average number of grid points per atom       ...     1184
Average number of shells per batch           ...    63.53 (75.64%)
Average number of basis functions per batch  ...   136.56 (75.87%)
Average number of large shells per batch     ...    51.06 (80.36%)
Average number of large basis fcns per batch ...   110.59 (80.99%)
Maximum spatial batch extension              ...   4.15,  3.58, 25.77 au
Average spatial batch extension              ...   0.48,  0.47,  0.97 au

Time for grid setup =    0.101 sec

------------------------------
INITIAL GUESS: MODEL POTENTIAL
------------------------------
Loading Hartree-Fock densities                     ... done
Calculating cut-offs                               ... done
Setting up the integral package                    ... done
Initializing the effective Hamiltonian             ... done
Starting the Coulomb interaction                   ... done (   0.0 sec)
Reading the grid                                   ... done
Mapping shells                                     ... done
Starting the XC term evaluation                    ... done (   0.1 sec)
  promolecular density results
     # of electrons  =     72.000091669
     EX              =    -59.560767525
     EC              =     -2.392244137
     EX+EC           =    -61.953011662
Transforming the Hamiltonian                       ... done (   0.0 sec)
Diagonalizing the Hamiltonian                      ... done (   0.0 sec)
Back transforming the eigenvectors                 ... done (   0.0 sec)
Now organizing SCF variables                       ... done
                      ------------------
                      INITIAL GUESS DONE (   0.3 sec)
                      ------------------
--------------------
COSX GRID GENERATION
--------------------

General Integration Accuracy     IntAcc      ...  3.340
Radial Grid Type                 RadialGrid  ... Gauss-Chebyshev
Angular Grid (max. acc.)         AngularGrid ... Lebedev-50
Angular grid pruning method      GridPruning ... 3 (G Style)
Weight generation scheme         WeightScheme... Becke
Basis function cutoff            BFCut       ...    1.0000e-11
Integration weight cutoff        WCut        ...    1.0000e-14
Grids for H and He will be reduced by one unit

# of grid points (after initial pruning)     ...   8360 (   0.0 sec)
# of grid points (after weights+screening)   ...   7826 (   0.0 sec)
nearest neighbour list constructed           ...    0.0 sec
Grid point re-assignment to atoms done       ...    0.0 sec
Grid point division into batches done        ...    0.0 sec
Reduced shell lists constructed in    0.0 sec

Total number of grid points                  ...     7826
Total number of batches                      ...      131
Average number of points per batch           ...       59
Average number of grid points per atom       ...      435
Average number of shells per batch           ...    64.44 (76.72%)
Average number of basis functions per batch  ...   138.62 (77.01%)
Average number of large shells per batch     ...    51.74 (80.28%)
Average number of large basis fcns per batch ...   112.62 (81.24%)
Maximum spatial batch extension              ...   3.90,  3.72, 30.36 au
Average spatial batch extension              ...   0.60,  0.58,  1.74 au

Overlap Fitting                  UseSFitting ... on
Constructing numerical overlap ... done (      0.0 sec)
Inverting numerical overlap    ... done (      0.0 sec)
Obtaining analytic overlap     ... done (      0.0 sec)
Final contraction and storage  ... done (      0.0 sec)


General Integration Accuracy     IntAcc      ...  3.670
Radial Grid Type                 RadialGrid  ... Gauss-Chebyshev
Angular Grid (max. acc.)         AngularGrid ... Lebedev-50
Angular grid pruning method      GridPruning ... 3 (G Style)
Weight generation scheme         WeightScheme... Becke
Basis function cutoff            BFCut       ...    1.0000e-11
Integration weight cutoff        WCut        ...    1.0000e-14
Grids for H and He will be reduced by one unit

# of grid points (after initial pruning)     ...  10596 (   0.0 sec)
# of grid points (after weights+screening)   ...   9878 (   0.0 sec)
nearest neighbour list constructed           ...    0.0 sec
Grid point re-assignment to atoms done       ...    0.0 sec
Grid point division into batches done        ...    0.0 sec
Reduced shell lists constructed in    0.0 sec

Total number of grid points                  ...     9878
Total number of batches                      ...      162
Average number of points per batch           ...       60
Average number of grid points per atom       ...      549
Average number of shells per batch           ...    65.05 (77.44%)
Average number of basis functions per batch  ...   140.24 (77.91%)
Average number of large shells per batch     ...    52.17 (80.20%)
Average number of large basis fcns per batch ...   113.60 (81.00%)
Maximum spatial batch extension              ...   3.97,  3.63, 33.72 au
Average spatial batch extension              ...   0.59,  0.55,  1.50 au

Overlap Fitting                  UseSFitting ... on
Constructing numerical overlap ... done (      0.0 sec)
Inverting numerical overlap    ... done (      0.0 sec)
Obtaining analytic overlap     ... done (      0.0 sec)
Final contraction and storage  ... done (      0.0 sec)


General Integration Accuracy     IntAcc      ...  4.010
Radial Grid Type                 RadialGrid  ... Gauss-Chebyshev
Angular Grid (max. acc.)         AngularGrid ... Lebedev-110
Angular grid pruning method      GridPruning ... 3 (G Style)
Weight generation scheme         WeightScheme... Becke
Basis function cutoff            BFCut       ...    1.0000e-11
Integration weight cutoff        WCut        ...    1.0000e-14
Grids for H and He will be reduced by one unit

# of grid points (after initial pruning)     ...  19932 (   0.0 sec)
# of grid points (after weights+screening)   ...  18487 (   0.0 sec)
nearest neighbour list constructed           ...    0.0 sec
Grid point re-assignment to atoms done       ...    0.0 sec
Grid point division into batches done        ...    0.0 sec
Reduced shell lists constructed in    0.1 sec

Total number of grid points                  ...    18487
Total number of batches                      ...      298
Average number of points per batch           ...       62
Average number of grid points per atom       ...     1027
Average number of shells per batch           ...    63.68 (75.81%)
Average number of basis functions per batch  ...   137.03 (76.13%)
Average number of large shells per batch     ...    51.26 (80.50%)
Average number of large basis fcns per batch ...   111.03 (81.03%)
Maximum spatial batch extension              ...   4.10,  3.60, 20.99 au
Average spatial batch extension              ...   0.51,  0.49,  1.01 au

Overlap Fitting                  UseSFitting ... on
Constructing numerical overlap ... done (      0.0 sec)
Inverting numerical overlap    ... done (      0.0 sec)
Obtaining analytic overlap     ... done (      0.0 sec)
Final contraction and storage  ... done (      0.0 sec)

Time for X-Grid setup             =    0.311 sec
--------------
SCF ITERATIONS
--------------
ITER       Energy         Delta-E        Max-DP      RMS-DP      [F,P]     Damp
               ***  Starting incremental Fock matrix formation  ***
  0   -459.0536673792   0.000000000000 0.09210398  0.00232866  0.2518661 0.7000
  1   -459.1506635157  -0.096996136522 0.05459375  0.00154719  0.1039340 0.7000
                               ***Turning on DIIS***
  2   -459.1889849782  -0.038321462570 0.06228489  0.00257835  0.0334113 0.0000
  3   -459.2528826473  -0.063897669066 0.03683889  0.00100788  0.0529985 0.0000
  4   -459.2641509054  -0.011268258076 0.01187232  0.00031114  0.0169574 0.0000
  5   -459.2649716050  -0.000820699647 0.00381989  0.00009570  0.0050763 0.0000
                      *** Initiating the SOSCF procedure ***
                           *** Shutting down DIIS ***
                      *** Re-Reading the Fockian *** 
                      *** Removing any level shift *** 
ITER      Energy       Delta-E        Grad      Rot      Max-DP    RMS-DP
  6   -459.26501658  -0.0000449748  0.000271  0.000271  0.001064  0.000032
               *** Restarting incremental Fock matrix formation ***
  7   -459.26503847  -0.0000218905  0.000183  0.000278  0.000794  0.000021
  8   -459.26503758   0.0000008908  0.000246  0.000319  0.000557  0.000011
  9   -459.26503912  -0.0000015372  0.000025  0.000066  0.000146  0.000004
 10   -459.26503908   0.0000000405  0.000043  0.000042  0.000110  0.000003
 11   -459.26503914  -0.0000000611  0.000005  0.000016  0.000019  0.000001
 12   -459.26503914  -0.0000000000  0.000008  0.000013  0.000015  0.000000
                  ***Gradient check signals convergence***
              ***Rediagonalizing the Fockian in SOSCF/NRSCF***

               *****************************************************
               *                     SUCCESS                       *
               *           SCF CONVERGED AFTER  13 CYCLES          *
               *****************************************************

Setting up the final grid:

General Integration Accuracy     IntAcc      ...  4.670
Radial Grid Type                 RadialGrid  ... Gauss-Chebyshev
Angular Grid (max. acc.)         AngularGrid ... Lebedev-302
Angular grid pruning method      GridPruning ... 3 (G Style)
Weight generation scheme         WeightScheme... Becke
Basis function cutoff            BFCut       ...    1.0000e-11
Integration weight cutoff        WCut        ...    1.0000e-14
Grids for H and He will be reduced by one unit

# of grid points (after initial pruning)     ...  89272 (   0.0 sec)
# of grid points (after weights+screening)   ...  81506 (   0.1 sec)
nearest neighbour list constructed           ...    0.0 sec
Grid point re-assignment to atoms done       ...    0.0 sec
Grid point division into batches done        ...    0.3 sec
Reduced shell lists constructed in    0.5 sec

Total number of grid points                  ...    81506
Total number of batches                      ...     1283
Average number of points per batch           ...       63
Average number of grid points per atom       ...     4528
Average number of shells per batch           ...    61.08 (72.72%)
Average number of basis functions per batch  ...   130.72 (72.62%)
Average number of large shells per batch     ...    48.01 (78.59%)
Average number of large basis fcns per batch ...   102.83 (78.67%)
Maximum spatial batch extension              ...   5.22,  3.77, 23.16 au
Average spatial batch extension              ...   0.34,  0.33,  0.47 au

Final grid set up in    0.6 sec
Final integration                            ... done (   0.3 sec)
Change in XC energy                          ...    -0.000197021
Integrated number of electrons               ...    71.999931066
Previous integrated no of electrons          ...    72.002453592
Old exchange energy                            =    -15.163279824 Eh
New exchange energy                            =    -15.163178726 Eh
Exchange energy change after final integration =      0.000101098 Eh
Total energy after final integration           =   -459.265135065 Eh
Final COS-X integration done in                =     1.829 sec

----------------
TOTAL SCF ENERGY
----------------

Total Energy       :         -459.26513506 Eh          -12497.23967 eV

Components:
Nuclear Repulsion  :          487.93681381 Eh           13277.43572 eV
Electronic Energy  :         -947.20194887 Eh          -25774.67539 eV
One Electron Energy:        -1590.69965556 Eh          -43285.13820 eV
Two Electron Energy:          643.49770669 Eh           17510.46281 eV

Virial components:
Potential Energy   :         -914.23707520 Eh          -24877.65557 eV
Kinetic Energy     :          454.97194013 Eh           12380.41590 eV
Virial Ratio       :            2.00943618


DFT components:
N(Alpha)           :       35.999965533184 electrons
N(Beta)            :       35.999965533184 electrons
N(Total)           :       71.999931066367 electrons
E(X)               :      -45.385963656624 Eh       
E(C)               :       -2.410839458310 Eh       
E(XC)              :      -47.796803114934 Eh       

---------------
SCF CONVERGENCE
---------------

  Last Energy change         ...   -4.1672e-09  Tolerance :   1.0000e-08
  Last MAX-Density change    ...    5.6816e-14  Tolerance :   1.0000e-07
  Last RMS-Density change    ...    3.5091e-16  Tolerance :   5.0000e-09
  Last Orbital Gradient      ...    1.7346e-06  Tolerance :   1.0000e-05
  Last Orbital Rotation      ...    4.3162e-06  Tolerance :   1.0000e-05

             **** THE GBW FILE WAS UPDATED (/scratch/1796817.1.multiway.q/HArCOOMe_c1.gbw) ****
             **** DENSITY FILE WAS UPDATED (/scratch/1796817.1.multiway.q/HArCOOMe_c1.scfp.tmp) ****
             **** ENERGY FILE WAS UPDATED (/scratch/1796817.1.multiway.q/HArCOOMe_c1.en.tmp) ****
----------------
ORBITAL ENERGIES
----------------

  NO   OCC          E(Eh)            E(eV) 
   0   2.0000     -19.247914      -523.7624 
   1   2.0000     -19.191906      -522.2383 
   2   2.0000     -10.361921      -281.9622 
   3   2.0000     -10.291862      -280.0558 
   4   2.0000     -10.258662      -279.1524 
   5   2.0000     -10.254313      -279.0340 
   6   2.0000     -10.253869      -279.0220 
   7   2.0000     -10.251776      -278.9650 
   8   2.0000     -10.250770      -278.9376 
   9   2.0000     -10.250238      -278.9232 
  10   2.0000      -1.125352       -30.6224 
  11   2.0000      -1.031549       -28.0699 
  12   2.0000      -0.890574       -24.2338 
  13   2.0000      -0.797459       -21.7000 
  14   2.0000      -0.774687       -21.0803 
  15   2.0000      -0.743414       -20.2293 
  16   2.0000      -0.650089       -17.6898 
  17   2.0000      -0.629615       -17.1327 
  18   2.0000      -0.582793       -15.8586 
  19   2.0000      -0.559718       -15.2307 
  20   2.0000      -0.507104       -13.7990 
  21   2.0000      -0.501461       -13.6454 
  22   2.0000      -0.493351       -13.4248 
  23   2.0000      -0.472340       -12.8530 
  24   2.0000      -0.459509       -12.5039 
  25   2.0000      -0.446150       -12.1404 
  26   2.0000      -0.438861       -11.9420 
  27   2.0000      -0.423889       -11.5346 
  28   2.0000      -0.385910       -10.5011 
  29   2.0000      -0.380874       -10.3641 
  30   2.0000      -0.367965       -10.0128 
  31   2.0000      -0.352313        -9.5869 
  32   2.0000      -0.309787        -8.4297 
  33   2.0000      -0.287465        -7.8223 
  34   2.0000      -0.280096        -7.6218 
  35   2.0000      -0.278547        -7.5797 
  36   0.0000      -0.049312        -1.3418 
  37   0.0000      -0.014062        -0.3826 
  38   0.0000       0.059044         1.6067 
  39   0.0000       0.069955         1.9036 
  40   0.0000       0.087868         2.3910 
  41   0.0000       0.110518         3.0074 
  42   0.0000       0.122850         3.3429 
  43   0.0000       0.130917         3.5624 
  44   0.0000       0.146660         3.9908 
  45   0.0000       0.147000         4.0001 
  46   0.0000       0.163597         4.4517 
  47   0.0000       0.173683         4.7261 
  48   0.0000       0.175025         4.7627 
  49   0.0000       0.254173         6.9164 
  50   0.0000       0.270448         7.3593 
  51   0.0000       0.281906         7.6711 
  52   0.0000       0.288771         7.8579 
  53   0.0000       0.295540         8.0420 
  54   0.0000       0.325187         8.8488 
  55   0.0000       0.339542         9.2394 
  56   0.0000       0.367079         9.9887 
  57   0.0000       0.416088        11.3223 
  58   0.0000       0.422510        11.4971 
  59   0.0000       0.434887        11.8339 
  60   0.0000       0.454044        12.3552 
  61   0.0000       0.458682        12.4814 
  62   0.0000       0.467225        12.7139 
  63   0.0000       0.477181        12.9848 
  64   0.0000       0.488511        13.2931 
  65   0.0000       0.497658        13.5420 
  66   0.0000       0.502682        13.6787 
  67   0.0000       0.514253        13.9935 
  68   0.0000       0.546434        14.8692 
  69   0.0000       0.552312        15.0292 
  70   0.0000       0.597628        16.2623 
  71   0.0000       0.609588        16.5877 
  72   0.0000       0.630164        17.1476 
  73   0.0000       0.640243        17.4219 
  74   0.0000       0.653072        17.7710 
  75   0.0000       0.658110        17.9081 
  76   0.0000       0.662414        18.0252 
  77   0.0000       0.664136        18.0721 
  78   0.0000       0.674614        18.3572 
  79   0.0000       0.679173        18.4812 
  80   0.0000       0.693105        18.8604 
  81   0.0000       0.702249        19.1092 
  82   0.0000       0.711734        19.3673 
  83   0.0000       0.727500        19.7963 
  84   0.0000       0.731231        19.8978 
  85   0.0000       0.750463        20.4211 
  86   0.0000       0.764614        20.8062 
  87   0.0000       0.773841        21.0573 
  88   0.0000       0.792656        21.5693 
  89   0.0000       0.846607        23.0373 
  90   0.0000       0.859293        23.3825 
  91   0.0000       0.901813        24.5396 
  92   0.0000       0.932743        25.3812 
  93   0.0000       1.008272        27.4365 
  94   0.0000       1.031321        28.0637 
  95   0.0000       1.046676        28.4815 
  96   0.0000       1.084301        29.5053 
  97   0.0000       1.127913        30.6921 
  98   0.0000       1.157749        31.5040 
  99   0.0000       1.186638        32.2901 
 100   0.0000       1.228409        33.4267 
 101   0.0000       1.233456        33.5640 
 102   0.0000       1.240819        33.7644 
 103   0.0000       1.255353        34.1599 
 104   0.0000       1.265222        34.4284 
 105   0.0000       1.285976        34.9932 
 106   0.0000       1.306174        35.5428 
 107   0.0000       1.316380        35.8205 
 108   0.0000       1.331552        36.2334 
 109   0.0000       1.369247        37.2591 
 110   0.0000       1.428744        38.8781 
 111   0.0000       1.515348        41.2347 
 112   0.0000       1.525464        41.5100 
 113   0.0000       1.544533        42.0289 
 114   0.0000       1.597288        43.4644 
 115   0.0000       1.663392        45.2632 
 116   0.0000       1.670482        45.4561 
 117   0.0000       1.684818        45.8462 
 118   0.0000       1.692419        46.0531 
 119   0.0000       1.729803        47.0703 
 120   0.0000       1.732834        47.1528 
 121   0.0000       1.746481        47.5242 
 122   0.0000       1.753606        47.7181 
 123   0.0000       1.755121        47.7593 
 124   0.0000       1.761205        47.9248 
 125   0.0000       1.763457        47.9861 
 126   0.0000       1.784544        48.5599 
 127   0.0000       1.798727        48.9459 
 128   0.0000       1.834840        49.9285 
 129   0.0000       1.853218        50.4286 
 130   0.0000       1.903079        51.7854 
 131   0.0000       1.933270        52.6069 
 132   0.0000       1.939361        52.7727 
 133   0.0000       1.954378        53.1813 
 134   0.0000       1.968726        53.5718 
 135   0.0000       1.981357        53.9155 
 136   0.0000       1.981583        53.9216 
 137   0.0000       1.991145        54.1818 
 138   0.0000       2.053801        55.8868 
 139   0.0000       2.106298        57.3153 
 140   0.0000       2.121968        57.7417 
 141   0.0000       2.147558        58.4380 
 142   0.0000       2.156518        58.6819 
 143   0.0000       2.184599        59.4460 
 144   0.0000       2.264177        61.6114 
 145   0.0000       2.292843        62.3914 
 146   0.0000       2.294628        62.4400 
 147   0.0000       2.297592        62.5206 
 148   0.0000       2.303603        62.6842 
 149   0.0000       2.326793        63.3153 
 150   0.0000       2.352028        64.0019 
 151   0.0000       2.376578        64.6700 
 152   0.0000       2.421945        65.9045 
 153   0.0000       2.513005        68.3824 
 154   0.0000       2.542366        69.1813 
 155   0.0000       2.617149        71.2163 
 156   0.0000       2.631664        71.6112 
 157   0.0000       2.640754        71.8586 
 158   0.0000       2.648085        72.0581 
 159   0.0000       2.662998        72.4639 
 160   0.0000       2.699376        73.4538 
 161   0.0000       2.734741        74.4161 
 162   0.0000       2.739586        74.5479 
 163   0.0000       2.754988        74.9670 
 164   0.0000       2.811724        76.5109 
 165   0.0000       2.868704        78.0614 
 166   0.0000       2.881250        78.4028 
 167   0.0000       2.894199        78.7551 
 168   0.0000       2.910066        79.1869 
 169   0.0000       3.027871        82.3926 
 170   0.0000       3.038461        82.6807 
 171   0.0000       3.040995        82.7497 
 172   0.0000       3.143714        85.5448 
 173   0.0000       3.195875        86.9642 
 174   0.0000       3.230053        87.8942 
 175   0.0000       3.255578        88.5888 
 176   0.0000       3.480825        94.7181 
 177   0.0000       3.574351        97.2630 
 178   0.0000       3.701437       100.7212 
 179   0.0000       3.727794       101.4384 

                    ********************************
                    * MULLIKEN POPULATION ANALYSIS *
                    ********************************

-----------------------
MULLIKEN ATOMIC CHARGES
-----------------------
   0 C :   -0.011692
   1 C :   -0.000661
   2 C :    0.000231
   3 C :   -0.127480
   4 C :    0.027144
   5 C :   -0.031439
   6 H :    0.033143
   7 H :    0.026799
   8 H :    0.028353
   9 H :    0.043914
  10 C :    0.297129
  11 H :    0.030739
  12 O :   -0.244602
  13 O :   -0.345997
  14 C :    0.110504
  15 H :    0.058792
  16 H :    0.052220
  17 H :    0.052904
Sum of atomic charges:   -0.0000000

--------------------------------
MULLIKEN REDUCED ORBITAL CHARGES
--------------------------------
  0 C s       :     3.162375  s :     3.162375
      pz      :     0.985620  p :     2.814505
      px      :     0.904239
      py      :     0.924646
      dz2     :     0.002513  d :     0.034811
      dxz     :     0.003719
      dyz     :     0.005136
      dx2y2   :     0.011000
      dxy     :     0.012444
  1 C s       :     3.159645  s :     3.159645
      pz      :     0.959772  p :     2.805808
      px      :     0.899010
      py      :     0.947026
      dz2     :     0.002542  d :     0.035208
      dxz     :     0.003360
      dyz     :     0.005917
      dx2y2   :     0.011285
      dxy     :     0.012104
  2 C s       :     3.219806  s :     3.219806
      pz      :     0.934446  p :     2.745382
      px      :     0.942162
      py      :     0.868774
      dz2     :     0.002596  d :     0.034581
      dxz     :     0.006799
      dyz     :     0.002649
      dx2y2   :     0.011682
      dxy     :     0.010854
  3 C s       :     3.076879  s :     3.076879
      pz      :     1.044521  p :     3.010878
      px      :     1.000693
      py      :     0.965663
      dz2     :     0.003249  d :     0.039724
      dxz     :     0.004174
      dyz     :     0.006458
      dx2y2   :     0.011958
      dxy     :     0.013885
  4 C s       :     3.206106  s :     3.206106
      pz      :     0.942965  p :     2.732256
      px      :     0.846531
      py      :     0.942760
      dz2     :     0.002534  d :     0.034494
      dxz     :     0.003925
      dyz     :     0.005535
      dx2y2   :     0.011185
      dxy     :     0.011315
  5 C s       :     3.165104  s :     3.165104
      pz      :     0.989833  p :     2.831511
      px      :     0.958318
      py      :     0.883359
      dz2     :     0.002573  d :     0.034824
      dxz     :     0.006243
      dyz     :     0.002575
      dx2y2   :     0.012836
      dxy     :     0.010597
  6 H s       :     0.943412  s :     0.943412
      pz      :     0.004724  p :     0.023445
      px      :     0.003291
      py      :     0.015430
  7 H s       :     0.949780  s :     0.949780
      pz      :     0.004584  p :     0.023421
      px      :     0.013055
      py      :     0.005781
  8 H s       :     0.948102  s :     0.948102
      pz      :     0.004776  p :     0.023545
      px      :     0.011735
      py      :     0.007034
  9 H s       :     0.931925  s :     0.931925
      pz      :     0.004283  p :     0.024161
      px      :     0.003648
      py      :     0.016230
 10 C s       :     3.006378  s :     3.006378
      pz      :     0.818089  p :     2.562523
      px      :     0.868233
      py      :     0.876201
      dz2     :     0.007307  d :     0.133970
      dxz     :     0.011469
      dyz     :     0.027122
      dx2y2   :     0.030900
      dxy     :     0.057172
 11 H s       :     0.945253  s :     0.945253
      pz      :     0.004540  p :     0.024008
      px      :     0.012663
      py      :     0.006805
 12 O s       :     3.744844  s :     3.744844
      pz      :     1.398966  p :     4.480993
      px      :     1.755796
      py      :     1.326230
      dz2     :     0.002069  d :     0.018765
      dxz     :     0.000089
      dyz     :     0.006006
      dx2y2   :     0.006452
      dxy     :     0.004150
 13 O s       :     3.723514  s :     3.723514
      pz      :     1.760344  p :     4.606912
      px      :     1.186727
      py      :     1.659841
      dz2     :     0.002080  d :     0.015571
      dxz     :     0.002533
      dyz     :     0.001766
      dx2y2   :     0.002512
      dxy     :     0.006680
 14 C s       :     3.044078  s :     3.044078
      pz      :     1.047515  p :     2.790605
      px      :     0.747540
      py      :     0.995550
      dz2     :     0.009015  d :     0.054813
      dxz     :     0.009423
      dyz     :     0.008352
      dx2y2   :     0.012482
      dxy     :     0.015541
 15 H s       :     0.919041  s :     0.919041
      pz      :     0.005201  p :     0.022167
      px      :     0.006945
      py      :     0.010021
 16 H s       :     0.925263  s :     0.925263
      pz      :     0.011749  p :     0.022517
      px      :     0.002566
      py      :     0.008201
 17 H s       :     0.924591  s :     0.924591
      pz      :     0.011310  p :     0.022505
      px      :     0.002949
      py      :     0.008245


                     *******************************
                     * LOEWDIN POPULATION ANALYSIS *
                     *******************************

----------------------
LOEWDIN ATOMIC CHARGES
----------------------
   0 C :   -0.029898
   1 C :   -0.013357
   2 C :    0.007466
   3 C :   -0.079040
   4 C :   -0.000819
   5 C :   -0.033888
   6 H :    0.037695
   7 H :    0.036440
   8 H :    0.037599
   9 H :    0.044648
  10 C :    0.103414
  11 H :    0.039851
  12 O :   -0.181255
  13 O :   -0.106288
  14 C :    0.055838
  15 H :    0.031443
  16 H :    0.025003
  17 H :    0.025150

-------------------------------
LOEWDIN REDUCED ORBITAL CHARGES
-------------------------------
  0 C s       :     2.860974  s :     2.860974
      pz      :     0.967519  p :     3.078451
      px      :     1.051351
      py      :     1.059582
      dz2     :     0.006074  d :     0.090473
      dxz     :     0.006942
      dyz     :     0.010402
      dx2y2   :     0.031860
      dxy     :     0.035194
  1 C s       :     2.865118  s :     2.865118
      pz      :     0.942642  p :     3.057624
      px      :     1.049492
      py      :     1.065490
      dz2     :     0.006100  d :     0.090614
      dxz     :     0.006164
      dyz     :     0.012150
      dx2y2   :     0.032159
      dxy     :     0.034041
  2 C s       :     2.861790  s :     2.861790
      pz      :     0.928660  p :     3.040840
      px      :     1.056196
      py      :     1.055984
      dz2     :     0.006165  d :     0.089905
      dxz     :     0.014323
      dyz     :     0.004486
      dx2y2   :     0.033876
      dxy     :     0.031055
  3 C s       :     2.857460  s :     2.857460
      pz      :     1.006442  p :     3.116052
      px      :     1.038615
      py      :     1.070994
      dz2     :     0.008243  d :     0.105528
      dxz     :     0.008364
      dyz     :     0.013100
      dx2y2   :     0.035342
      dxy     :     0.040480
  4 C s       :     2.861863  s :     2.861863
      pz      :     0.937215  p :     3.048637
      px      :     1.056936
      py      :     1.054487
      dz2     :     0.006066  d :     0.090318
      dxz     :     0.007380
      dyz     :     0.011485
      dx2y2   :     0.031962
      dxy     :     0.033427
  5 C s       :     2.861666  s :     2.861666
      pz      :     0.970395  p :     3.081899
      px      :     1.067474
      py      :     1.044030
      dz2     :     0.006180  d :     0.090323
      dxz     :     0.013114
      dyz     :     0.004250
      dx2y2   :     0.036038
      dxy     :     0.030742
  6 H s       :     0.894093  s :     0.894093
      pz      :     0.014128  p :     0.068212
      px      :     0.011207
      py      :     0.042876
  7 H s       :     0.895686  s :     0.895686
      pz      :     0.013617  p :     0.067874
      px      :     0.036543
      py      :     0.017715
  8 H s       :     0.894232  s :     0.894232
      pz      :     0.014232  p :     0.068169
      px      :     0.033077
      py      :     0.020860
  9 H s       :     0.883952  s :     0.883952
      pz      :     0.012938  p :     0.071400
      px      :     0.012334
      py      :     0.046128
 10 C s       :     2.843033  s :     2.843033
      pz      :     0.816204  p :     2.759752
      px      :     0.936512
      py      :     1.007036
      dz2     :     0.017006  d :     0.293802
      dxz     :     0.021228
      dyz     :     0.050435
      dx2y2   :     0.073694
      dxy     :     0.131440
 11 H s       :     0.889725  s :     0.889725
      pz      :     0.013545  p :     0.070424
      px      :     0.036185
      py      :     0.020694
 12 O s       :     3.543846  s :     3.543846
      pz      :     1.392948  p :     4.605648
      px      :     1.748372
      py      :     1.464328
      dz2     :     0.004464  d :     0.031761
      dxz     :     0.000095
      dyz     :     0.007338
      dx2y2   :     0.013406
      dxy     :     0.006458
 13 O s       :     3.418016  s :     3.418016
      pz      :     1.730030  p :     4.657223
      px      :     1.247430
      py      :     1.679764
      dz2     :     0.003915  d :     0.031049
      dxz     :     0.004877
      dyz     :     0.001973
      dx2y2   :     0.006317
      dxy     :     0.013967
 14 C s       :     2.850291  s :     2.850291
      pz      :     1.083828  p :     2.965229
      px      :     0.829415
      py      :     1.051987
      dz2     :     0.021079  d :     0.128642
      dxz     :     0.020362
      dyz     :     0.023155
      dx2y2   :     0.026552
      dxy     :     0.037494
 15 H s       :     0.906117  s :     0.906117
      pz      :     0.012405  p :     0.062440
      px      :     0.021052
      py      :     0.028983
 16 H s       :     0.910931  s :     0.910931
      pz      :     0.033612  p :     0.064066
      px      :     0.008482
      py      :     0.021972
 17 H s       :     0.910774  s :     0.910774
      pz      :     0.032183  p :     0.064076
      px      :     0.009667
      py      :     0.022226


                      *****************************
                      * MAYER POPULATION ANALYSIS *
                      *****************************

  NA   - Mulliken gross atomic population
  ZA   - Total nuclear charge
  QA   - Mulliken gross atomic charge
  VA   - Mayer's total valence
  BVA  - Mayer's bonded valence
  FA   - Mayer's free valence

  ATOM       NA         ZA         QA         VA         BVA        FA
  0 C      6.0117     6.0000    -0.0117     3.8363     3.8363     0.0000
  1 C      6.0007     6.0000    -0.0007     3.8406     3.8406     0.0000
  2 C      5.9998     6.0000     0.0002     3.8943     3.8943    -0.0000
  3 C      6.1275     6.0000    -0.1275     3.7840     3.7840     0.0000
  4 C      5.9729     6.0000     0.0271     3.8523     3.8523    -0.0000
  5 C      6.0314     6.0000    -0.0314     3.8464     3.8464    -0.0000
  6 H      0.9669     1.0000     0.0331     0.9814     0.9814     0.0000
  7 H      0.9732     1.0000     0.0268     0.9818     0.9818     0.0000
  8 H      0.9716     1.0000     0.0284     0.9825     0.9825     0.0000
  9 H      0.9561     1.0000     0.0439     1.0084     1.0084     0.0000
 10 C      5.7029     6.0000     0.2971     4.2166     4.2166     0.0000
 11 H      0.9693     1.0000     0.0307     1.0033     1.0033    -0.0000
 12 O      8.2446     8.0000    -0.2446     2.2529     2.2529    -0.0000
 13 O      8.3460     8.0000    -0.3460     2.1667     2.1667     0.0000
 14 C      5.8895     6.0000     0.1105     3.9098     3.9098     0.0000
 15 H      0.9412     1.0000     0.0588     0.9826     0.9826     0.0000
 16 H      0.9478     1.0000     0.0522     0.9907     0.9907    -0.0000
 17 H      0.9471     1.0000     0.0529     0.9902     0.9902     0.0000

  Mayer bond orders larger than 0.1
B(  0-C ,  1-C ) :   1.3806 B(  0-C ,  2-C ) :   1.3851 B(  0-C ,  8-H ) :   0.9883 
B(  1-C ,  5-C ) :   1.3884 B(  1-C ,  7-H ) :   0.9870 B(  2-C ,  3-C ) :   1.3931 
B(  2-C ,  9-H ) :   0.9834 B(  3-C ,  4-C ) :   1.3697 B(  3-C , 10-C ) :   0.9643 
B(  4-C ,  5-C ) :   1.3847 B(  4-C , 11-H ) :   0.9861 B(  5-C ,  6-H ) :   0.9865 
B( 10-C , 12-O ) :   2.0626 B( 10-C , 13-O ) :   1.1568 B( 13-O , 14-C ) :   0.9287 
B( 14-C , 15-H ) :   0.9762 B( 14-C , 16-H ) :   0.9725 B( 14-C , 17-H ) :   0.9724 


-------
TIMINGS
-------

Total SCF time: 0 days 0 hours 0 min 18 sec 

Total time                  ....      18.550 sec
Sum of individual times     ....      18.487 sec  ( 99.7%)

Fock matrix formation       ....      17.134 sec  ( 92.4%)
  Split-RI-J                ....       2.842 sec  ( 16.6% of F)
  Chain of spheres X        ....      12.904 sec  ( 75.3% of F)
  COS-X 1 center corr.      ....       0.000 sec  (  0.0% of F)
  XC integration            ....       1.344 sec  (  7.8% of F)
    Basis function eval.    ....       0.440 sec  ( 32.7% of XC)
    Density eval.           ....       0.268 sec  ( 19.9% of XC)
    XC-Functional eval.     ....       0.082 sec  (  6.1% of XC)
    XC-Potential eval.      ....       0.457 sec  ( 34.0% of XC)
Diagonalization             ....       0.059 sec  (  0.3%)
Density matrix formation    ....       0.006 sec  (  0.0%)
Population analysis         ....       0.014 sec  (  0.1%)
Initial guess               ....       0.224 sec  (  1.2%)
Orbital Transformation      ....       0.000 sec  (  0.0%)
Orbital Orthonormalization  ....       0.000 sec  (  0.0%)
DIIS solution               ....       0.016 sec  (  0.1%)
SOSCF solution              ....       0.044 sec  (  0.2%)
Grid generation             ....       0.990 sec  (  5.3%)


-------------------------------------------------------------------------------
                          DFT DISPERSION CORRECTION                            
                                                                               
                              DFTD3 V3.1  Rev 1                                
                          USING Becke-Johnson damping                          
-------------------------------------------------------------------------------
The PBE0 functional is recognized
Active option DFTDOPT                   ...         4   

molecular C6(AA) [au] = 3615.306658 


            DFT-D V3
 parameters
 s6 scaling factor         :     1.0000 
 a1 scaling factor         :     0.4145 
 s8 scaling factor         :     1.2177 
 a2 scaling factor         :     4.8593 
 ad hoc parameters k1-k3   :    16.0000     1.3333    -4.0000 

 Edisp/kcal,au: -9.667338074569  -0.015405882210 
 E6   /kcal   :  -6.047012835 
 E8   /kcal   :  -3.620325239 
 % E8         :  37.449039346 

-------------------------   ----------------
Dispersion correction           -0.015405882
-------------------------   ----------------


-------------------------   --------------------
FINAL SINGLE POINT ENERGY      -459.280540946832
-------------------------   --------------------



           ************************************************************
           *        Program running with 4 parallel MPI-processes     *
           *              working on a common directory               *
           ************************************************************
------------------------------------------------------------------------------
                         ORCA SCF GRADIENT CALCULATION
------------------------------------------------------------------------------

Gradient of the Kohn-Sham DFT energy:
Kohn-Sham wavefunction type      ... RKS
Hartree-Fock exchange scaling    ...    0.250
Number of operators              ...    1
Number of atoms                  ...   18
Basis set dimensions             ...  180
Integral neglect threshold       ... 2.5e-11
Integral primitive cutoff        ... 2.5e-12

Nuclear repulsion gradient       ... done
One Electron Gradient            ... done
Pre-screening matrix             ... done
RI-J gradient                    ... done
COSX-gradient                    ... done
Exchange-correlation gradient    ... done
Dispersion correction            ... done

------------------
CARTESIAN GRADIENT
------------------

   1   C   :   -0.000418990    0.000415979   -0.000296560
   2   C   :    0.000071742    0.000073604   -0.000127225
   3   C   :   -0.000656184   -0.001472281   -0.000010998
   4   C   :   -0.007541422    0.006096523    0.000089105
   5   C   :   -0.000101440    0.000061965    0.000178172
   6   C   :   -0.000036812   -0.000029137    0.000041540
   7   H   :   -0.000039020   -0.000045852    0.000134407
   8   H   :   -0.000003950    0.000021435   -0.000223173
   9   H   :    0.000000942   -0.000041391   -0.000384808
  10   H   :    0.000021628   -0.000002888   -0.000152274
  11   C   :   -0.037664564   -0.015519059   -0.004794979
  12   H   :   -0.000591650   -0.000555301    0.000336641
  13   O   :    0.010835212   -0.005317384    0.001775811
  14   O   :    0.041757620    0.038618893    0.003947465
  15   C   :   -0.011690900   -0.020426652   -0.001154303
  16   H   :    0.008680548   -0.002993326    0.000550687
  17   H   :   -0.002203501   -0.000126976    0.006607879
  18   H   :   -0.001317282   -0.000050370   -0.006847624

Difference to translation invariance:
           :   -0.0008980232   -0.0012922166   -0.0003302366

Norm of the cartesian gradient     ...    0.0769233110
RMS gradient                       ...    0.0104679367
MAX gradient                       ...    0.0417576198

-------
TIMINGS
-------

Total SCF gradient time            ...        4.593 sec

One electron gradient       ....       0.056 sec  (  1.2%)
Prescreening matrices       ....       0.043 sec  (  0.9%)
RI-J Coulomb gradient       ....       0.544 sec  ( 11.8%)
COSX gradient               ....       1.865 sec  ( 40.6%)
XC gradient                 ....       1.655 sec  ( 36.0%)
------------------------------------------------------------------------------
                         ORCA GEOMETRY RELAXATION STEP
------------------------------------------------------------------------------

Reading the OPT-File                    .... done
Getting information on internals        .... done
Copying old internal coords+grads       .... done
Making the new internal coordinates     .... (new redundants).... done
Validating the new internal coordinates .... (new redundants).... done
Calculating the B-matrix                .... done
Calculating the G,G- and P matrices     .... done
Transforming gradient to internals      .... done
Projecting the internal gradient        .... done
Number of atoms                         ....  18
Number of internal coordinates          ....  79
Current Energy                          ....  -459.280540947 Eh
Current gradient norm                   ....     0.076923311 Eh/bohr
Maximum allowed component of the step   ....  0.300
Current trust radius                    ....  0.300
Evaluating the initial hessian          ....  (Almloef) done
Projecting the Hessian                  .... done
Forming the augmented Hessian           .... done
Diagonalizing the augmented Hessian     .... done
Last element of RFO vector              ....  0.989264027
Lowest eigenvalues of augmented Hessian:
 -0.007688889  0.013272861  0.017944031  0.021637636  0.025407645
Length of the computed step             ....  0.147725237
The final length of the internal step   ....  0.147725237
Converting the step to cartesian space:
 Initial RMS(Int)=    0.0166203877
Transforming coordinates:
 Iter   0:  RMS(Cart)=    0.0430951483 RMS(Int)=    1.2237841916
 Iter   1:  RMS(Cart)=    0.0012258983 RMS(Int)=    0.0005176478
 Iter   2:  RMS(Cart)=    0.0000511460 RMS(Int)=    0.0000191054
 Iter   3:  RMS(Cart)=    0.0000027710 RMS(Int)=    0.0000013846
 Iter   4:  RMS(Cart)=    0.0000001608 RMS(Int)=    0.0000000521
 Iter   5:  RMS(Cart)=    0.0000000078 RMS(Int)=    0.0000000039
done
Storing new coordinates                 .... done

                                .--------------------.
          ----------------------|Geometry convergence|-------------------------
          Item                value                   Tolerance       Converged
          ---------------------------------------------------------------------
          RMS gradient        0.0065999457            0.0001000000      NO
          MAX gradient        0.0354876709            0.0003000000      NO
          RMS step            0.0166203877            0.0020000000      NO
          MAX step            0.0821881941            0.0040000000      NO
          ........................................................
          Max(Bonds)      0.0173      Max(Angles)    4.71
          Max(Dihed)        2.12      Max(Improp)    0.00
          ---------------------------------------------------------------------

The optimization has not yet converged - more geometry cycles are needed


    ---------------------------------------------------------------------------
                         Redundant Internal Coordinates
                            (Angstroem and degrees)

        Definition                    Value    dE/dq     Step     New-Value
    ----------------------------------------------------------------------------
     1. B(C   1,C   0)                1.3956 -0.000243  0.0002    1.3958   
     2. B(C   2,C   0)                1.3904 -0.000091  0.0001    1.3905   
     3. B(C   3,C   2)                1.3982  0.000272 -0.0002    1.3980   
     4. B(C   4,C   3)                1.3992  0.000521 -0.0005    1.3988   
     5. B(C   5,C   4)                1.3922 -0.000092  0.0001    1.3922   
     6. B(C   5,C   1)                1.3947 -0.000094  0.0001    1.3948   
     7. B(H   6,C   5)                1.0928  0.000011 -0.0000    1.0928   
     8. B(H   7,C   1)                1.0929 -0.000066  0.0001    1.0930   
     9. B(H   8,C   0)                1.0920 -0.000023  0.0000    1.0920   
    10. B(H   9,C   2)                1.0923  0.000045 -0.0001    1.0923   
    11. B(C  10,C   3)                1.4854  0.005144 -0.0061    1.4793   
    12. B(H  11,C   4)                1.0909 -0.000137  0.0002    1.0911   
    13. B(O  12,C  10)                1.2059 -0.004119  0.0020    1.2078   
    14. B(O  13,C  10)                1.3601  0.020638 -0.0173    1.3428   
    15. B(C  14,O  13)                1.3795 -0.014412  0.0129    1.3925   
    16. B(H  15,C  14)                1.1093  0.007850 -0.0121    1.0972   
    17. B(H  16,C  14)                1.1110  0.005210 -0.0081    1.1029   
    18. B(H  17,C  14)                1.1110  0.005360 -0.0083    1.1027   
    19. A(C   1,C   0,C   2)          119.87 -0.000319    0.05    119.92   
    20. A(C   1,C   0,H   8)          120.18  0.000130   -0.02    120.16   
    21. A(C   2,C   0,H   8)          119.95  0.000189   -0.03    119.92   
    22. A(C   0,C   1,C   5)          120.18 -0.000003    0.00    120.18   
    23. A(C   5,C   1,H   7)          119.76 -0.000014    0.00    119.76   
    24. A(C   0,C   1,H   7)          120.06  0.000017   -0.00    120.05   
    25. A(C   3,C   2,H   9)          118.10 -0.000426    0.06    118.16   
    26. A(C   0,C   2,C   3)          120.08  0.000826   -0.11    119.97   
    27. A(C   0,C   2,H   9)          121.82 -0.000400    0.06    121.88   
    28. A(C   2,C   3,C  10)          117.68  0.000703   -0.09    117.58   
    29. A(C   2,C   3,C   4)          120.01 -0.000925    0.12    120.13   
    30. A(C   4,C   3,C  10)          122.31  0.000223   -0.03    122.28   
    31. A(C   3,C   4,C   5)          119.74  0.000191   -0.03    119.72   
    32. A(C   5,C   4,H  11)          120.75 -0.000778    0.12    120.88   
    33. A(C   3,C   4,H  11)          119.50  0.000588   -0.09    119.41   
    34. A(C   1,C   5,H   6)          119.92 -0.000024    0.00    119.92   
    35. A(C   1,C   5,C   4)          120.12  0.000230   -0.03    120.09   
    36. A(C   4,C   5,H   6)          119.96 -0.000205    0.03    119.99   
    37. A(O  12,C  10,O  13)          118.45 -0.025042    3.12    121.57   
    38. A(C   3,C  10,O  13)          116.88  0.024146   -3.16    113.72   
    39. A(C   3,C  10,O  12)          124.66  0.000893    0.05    124.71   
    40. A(C  10,O  13,C  14)          124.47  0.035488   -4.71    119.76   
    41. A(H  16,C  14,H  17)          109.78  0.005437   -1.02    108.76   
    42. A(H  15,C  14,H  17)          108.79 -0.001495    0.30    109.09   
    43. A(O  13,C  14,H  17)          110.15 -0.005622    0.94    111.10   
    44. A(H  15,C  14,H  16)          108.79 -0.001387    0.26    109.05   
    45. A(O  13,C  14,H  16)          110.15 -0.005415    0.90    111.06   
    46. A(O  13,C  14,H  15)          109.14  0.008605   -1.41    107.73   
    47. D(H   7,C   1,C   0,H   8)     -0.22 -0.000033    0.06     -0.16   
    48. D(C   5,C   1,C   0,H   8)    179.53 -0.000048    0.09    179.62   
    49. D(C   5,C   1,C   0,C   2)     -0.17  0.000044   -0.07     -0.24   
    50. D(H   7,C   1,C   0,C   2)   -179.92  0.000058   -0.10   -180.02   
    51. D(H   9,C   2,C   0,C   1)   -179.98 -0.000123    0.22   -179.76   
    52. D(C   3,C   2,C   0,C   1)      0.19  0.000172   -0.28     -0.09   
    53. D(H   9,C   2,C   0,H   8)      0.32 -0.000031    0.06      0.38   
    54. D(C   3,C   2,C   0,H   8)   -179.51  0.000264   -0.44   -179.95   
    55. D(C  10,C   3,C   2,H   9)      0.47 -0.000245    0.47      0.93   
    56. D(C  10,C   3,C   2,C   0)   -179.70 -0.000530    0.95   -178.75   
    57. D(C   4,C   3,C   2,H   9)   -179.88  0.000018   -0.05   -179.93   
    58. D(C   4,C   3,C   2,C   0)     -0.04 -0.000267    0.43      0.39   
    59. D(H  11,C   4,C   3,C   2)   -179.70  0.000126   -0.19   -179.89   
    60. D(C   5,C   4,C   3,C  10)    179.50  0.000421   -0.76    178.74   
    61. D(C   5,C   4,C   3,C   2)     -0.13  0.000144   -0.22     -0.36   
    62. D(H  11,C   4,C   3,C  10)     -0.06  0.000403   -0.73     -0.79   
    63. D(H   6,C   5,C   4,H  11)     -0.11 -0.000013    0.02     -0.08   
    64. D(C   1,C   5,C   4,H  11)    179.72  0.000096   -0.16    179.56   
    65. D(C   1,C   5,C   4,C   3)      0.16  0.000072   -0.13      0.03   
    66. D(H   6,C   5,C   1,H   7)     -0.43 -0.000071    0.12     -0.31   
    67. D(H   6,C   5,C   1,C   0)    179.81 -0.000057    0.09    179.90   
    68. D(H   6,C   5,C   4,C   3)   -179.66 -0.000037    0.06   -179.61   
    69. D(C   4,C   5,C   1,H   7)    179.74 -0.000180    0.31    180.05   
    70. D(C   4,C   5,C   1,C   0)     -0.01 -0.000165    0.28      0.26   
    71. D(O  13,C  10,C   3,C   4)      1.88  0.000216   -0.88      0.99   
    72. D(O  13,C  10,C   3,C   2)   -178.48  0.000481   -1.41   -179.89   
    73. D(O  12,C  10,C   3,C   4)   -177.13  0.000615   -1.59   -178.72   
    74. D(O  12,C  10,C   3,C   2)      2.51  0.000880   -2.12      0.39   
    75. D(C  14,O  13,C  10,O  12)     -0.49 -0.000743    1.38      0.89   
    76. D(C  14,O  13,C  10,C   3)   -179.56 -0.000599    0.74   -178.82   
    77. D(H  15,C  14,O  13,C  10)   -179.98  0.000240   -0.28   -180.26   
    78. D(H  17,C  14,O  13,C  10)    -60.60  0.000313   -0.21    -60.81   
    79. D(H  16,C  14,O  13,C  10)     60.64 -0.000091   -0.27     60.37   
    ----------------------------------------------------------------------------

         *************************************************************
         *                GEOMETRY OPTIMIZATION CYCLE   2            *
         *************************************************************
---------------------------------
CARTESIAN COORDINATES (ANGSTROEM)
---------------------------------
  C     -1.946160    0.766115   -0.078040
  C     -2.026739   -0.626785   -0.037066
  C     -0.704864    1.390710   -0.027958
  C      0.459827    0.623164    0.065180
  C      0.379707   -0.772861    0.099997
  C     -0.865159   -1.394176    0.049040
  H     -0.933389   -2.484322    0.082447
  H     -3.001345   -1.120090   -0.075958
  H     -2.855433    1.366332   -0.151678
  H     -0.604813    2.478080   -0.053974
  C      1.749954    1.342730    0.143460
  H      1.296118   -1.360397    0.174678
  O      1.868326    2.544726    0.139518
  O      2.816630    0.531495    0.228131
  C      4.093435    1.077198    0.332745
  H      4.807903    0.246745    0.393570
  H      4.185735    1.698655    1.239251
  H      4.333846    1.696212   -0.547573

----------------------------
CARTESIAN COORDINATES (A.U.)
----------------------------
  NO LB      ZA    FRAG     MASS         X           Y           Z
   0 C     6.0000    0    12.011   -3.677709    1.447748   -0.147475
   1 C     6.0000    0    12.011   -3.829981   -1.184453   -0.070044
   2 C     6.0000    0    12.011   -1.331999    2.628060   -0.052833
   3 C     6.0000    0    12.011    0.868948    1.177608    0.123172
   4 C     6.0000    0    12.011    0.717542   -1.460496    0.188968
   5 C     6.0000    0    12.011   -1.634913   -2.634610    0.092671
   6 H     1.0000    0     1.008   -1.763850   -4.694689    0.155801
   7 H     1.0000    0     1.008   -5.671719   -2.116663   -0.143539
   8 H     1.0000    0     1.008   -5.395987    2.581993   -0.286630
   9 H     1.0000    0     1.008   -1.142931    4.682893   -0.101997
  10 C     6.0000    0    12.011    3.306934    2.537392    0.271101
  11 H     1.0000    0     1.008    2.449307   -2.570778    0.330093
  12 O     8.0000    0    15.999    3.530625    4.808835    0.263651
  13 O     8.0000    0    15.999    5.322660    1.004379    0.431105
  14 C     6.0000    0    12.011    7.735471    2.035609    0.628798
  15 H     1.0000    0     1.008    9.085620    0.466281    0.743739
  16 H     1.0000    0     1.008    7.909892    3.209993    2.341845
  17 H     1.0000    0     1.008    8.189782    3.205376   -1.034763

--------------------------------
[...]
      4       0.042793   0.359503   0.037749  -0.018083  -0.000014  -0.000000
      5       0.003798  -0.019713   0.005299   0.001148  -0.000002   0.000004
      6      -0.107230  -0.168314   0.350020   0.017544   0.000041  -0.000003
      7       0.073521   0.145255   0.043358  -0.029152  -0.000004   0.000012
      8      -0.007960  -0.013089   0.016488   0.001626  -0.000000   0.000012
      9       0.177760   0.152493  -0.223008   0.031127  -0.000320   0.000006
     10       0.076508  -0.329318  -0.078494   0.116283   0.000109   0.000009
     11       0.008245   0.017396  -0.010475   0.000401  -0.000031  -0.000262
     12      -0.019826   0.029684   0.242724   0.015540  -0.000150   0.000024
     13      -0.131012   0.260886   0.209210  -0.025561   0.000094  -0.000013
     14       0.002868  -0.006518   0.005649   0.001641  -0.000009   0.000021
     15      -0.167535   0.140963  -0.313069  -0.025050  -0.000016  -0.000002
     16       0.053014  -0.169099  -0.047920   0.008119  -0.000057   0.000013
     17      -0.009589   0.012306  -0.013232  -0.001571   0.000001   0.000016
     18       0.463293  -0.165608   0.301185   0.026374   0.000024  -0.000005
     19       0.022406  -0.177333  -0.102890   0.006341   0.001000  -0.000156
     20       0.020977  -0.002329   0.017288   0.001015  -0.000037  -0.000035
     21       0.120743   0.212879   0.138285  -0.006310   0.000374  -0.000017
     22       0.091267  -0.394981   0.106092   0.019535   0.000237  -0.000010
     23       0.002231   0.023973   0.002394  -0.000939   0.000011   0.000017
     24       0.303662   0.256236   0.064135  -0.033775   0.000396  -0.000051
     25       0.379831   0.075443   0.296625  -0.021925  -0.000392   0.000034
     26       0.001976   0.009169  -0.006931  -0.000827   0.000035   0.000011
     27       0.403181   0.200525  -0.370049  -0.053738   0.000055  -0.000007
     28       0.047588   0.133104   0.119740  -0.039493  -0.000964  -0.000135
     29       0.018707   0.006897  -0.023380  -0.001172   0.000040  -0.000043
     30      -0.084564  -0.034513   0.039954  -0.106173   0.002372  -0.000086
     31       0.010316  -0.038170  -0.000662  -0.796447  -0.002473   0.000009
     32      -0.005245  -0.003564   0.002852  -0.013896   0.000174   0.000247
     33       0.290761  -0.257345  -0.101769   0.049465   0.002198  -0.000247
     34       0.312206  -0.140771  -0.337951   0.000522  -0.000502   0.000133
     35       0.004861  -0.009273   0.005038   0.002941   0.000131  -0.000264
     36       0.003458   0.016081  -0.001635   0.055980   0.000050   0.000001
     37      -0.018774   0.051123   0.012764   0.500332   0.001037  -0.000004
     38       0.000183   0.001698  -0.000198   0.008310   0.000018   0.000118
     39       0.015308  -0.006448   0.001121  -0.016864  -0.002454   0.000013
     40      -0.004813  -0.004636  -0.001113   0.059461   0.000017  -0.000006
     41       0.001297  -0.000529  -0.000093  -0.000305  -0.000246   0.000451
     42       0.017375   0.001704  -0.005167  -0.018882  -0.035450   0.012161
     43       0.004566   0.001493  -0.000502  -0.018025  -0.029904  -0.000413
     44       0.001746   0.000302  -0.000433  -0.003028  -0.005608  -0.094181
     45      -0.047373   0.003696  -0.001277   0.144945   0.299686  -0.011778
     46      -0.055460   0.002231   0.004139   0.125288  -0.341059   0.015540
     47      -0.005355   0.001036  -0.000005   0.020887   0.033891  -0.014849
     48      -0.081461   0.007794   0.012998   0.116449   0.009862   0.006841
     49      -0.021611  -0.001767   0.004067  -0.049382   0.357788   0.403862
     50       0.023960   0.002332  -0.005264  -0.013285   0.528505   0.570762
     51      -0.072730   0.006172   0.010556   0.106830   0.126798  -0.139246
     52      -0.020381  -0.001766   0.003677  -0.045929   0.351180  -0.414519
     53      -0.041913  -0.000653   0.008009   0.039364  -0.493636   0.556997
                 48         49         50         51         52         53    
      0       0.025366  -0.001540   0.042560   0.024522   0.047650  -0.004175
      1      -0.014863   0.000879  -0.028757  -0.022032  -0.029483   0.003087
      2       0.001796  -0.000107   0.003150   0.002004   0.003430  -0.000316
      3      -0.055502   0.003680  -0.017994   0.048080   0.020707  -0.006267
      4      -0.028325   0.001872  -0.004198   0.023538   0.012785  -0.001840
      5      -0.001624   0.000107  -0.000685   0.001438   0.000527  -0.000224
      6       0.000021   0.000040   0.000657   0.002962  -0.008313  -0.000090
      7       0.010230  -0.000381   0.026988   0.050619  -0.065354   0.002800
      8      -0.000306   0.000015  -0.000793  -0.001409   0.001603  -0.000087
      9       0.000614  -0.000033   0.000547   0.001704  -0.002326   0.000659
     10       0.000143   0.000111  -0.000407  -0.000493   0.001757   0.003605
     11       0.000021   0.000005   0.000039   0.000097  -0.000163  -0.000082
     12       0.006213   0.000133  -0.009608   0.008748   0.006788   0.071512
     13      -0.006031   0.000036   0.009116  -0.008098  -0.004607  -0.046192
     14       0.000548   0.000003  -0.000828   0.000746   0.000516   0.005352
     15       0.005218  -0.000341  -0.003240  -0.000408  -0.000980  -0.005033
     16       0.046744  -0.002561  -0.060491   0.034876   0.008689  -0.023366
     17      -0.001457   0.000074   0.002027  -0.001268  -0.000353   0.000589
     18      -0.040194   0.002289   0.046957  -0.023848  -0.004778   0.019860
     19      -0.551214   0.030328   0.682327  -0.381754  -0.091770   0.243584
     20       0.018197  -0.001002  -0.022623   0.012760   0.003117  -0.007953
     21       0.651831  -0.042884   0.182134  -0.527680  -0.228043   0.057766
     22       0.324174  -0.021297   0.085814  -0.261605  -0.115515   0.027385
     23       0.019398  -0.001277   0.005548  -0.015714  -0.006720   0.001771
     24      -0.294300   0.017648  -0.493168  -0.303023  -0.508132   0.045727
     25       0.195471  -0.011684   0.330330   0.208256   0.338875  -0.030952
     26      -0.021721   0.001305  -0.036486  -0.022611  -0.037477   0.003387
     27      -0.010433   0.000241  -0.026704  -0.049583   0.065838  -0.001957
     28      -0.124628   0.004817  -0.318919  -0.582780   0.727403  -0.027875
     29       0.003282  -0.000131   0.008406   0.015326  -0.018980   0.000733
     30      -0.000125  -0.000741  -0.000055   0.000017  -0.000059   0.000727
     31      -0.000063  -0.001009   0.000456   0.000512  -0.000973  -0.000685
     32      -0.000003  -0.000029  -0.000004   0.000006  -0.000005   0.000071
     33      -0.091717   0.000167   0.136929  -0.118173  -0.081874  -0.802078
     34       0.061651  -0.000250  -0.092469   0.079954   0.054041   0.526586
     35      -0.006994   0.000025   0.010435  -0.009038  -0.006199  -0.060697
     36       0.000060   0.000232   0.000108   0.000170  -0.000154  -0.000184
     37       0.000014   0.000432  -0.000164  -0.000202   0.000345  -0.000038
     38       0.000003   0.000018   0.000006   0.000008  -0.000007  -0.000016
     39       0.000014  -0.000424  -0.000089  -0.000010   0.000210   0.000070
     40       0.000067   0.000396  -0.000108   0.000032   0.000095   0.000450
     41      -0.000005  -0.000101  -0.000003  -0.000002   0.000014  -0.000006
     42       0.002515   0.043224   0.000203  -0.000324  -0.000102  -0.000371
     43      -0.005041  -0.084628  -0.000210   0.000500  -0.000083   0.000428
     44       0.000375   0.006185   0.000022  -0.000024  -0.000018  -0.000030
     45      -0.034321  -0.580998  -0.002046   0.003633   0.000599   0.003592
     46       0.039613   0.670078   0.002259  -0.004274  -0.000397  -0.004037
     47      -0.003838  -0.065022  -0.000232   0.000407   0.000070   0.000408
     48       0.000488   0.007208  -0.000083  -0.000003   0.000143   0.000112
     49       0.009693   0.160555   0.000091  -0.000764   0.000556  -0.000316
     50       0.015419   0.256188   0.000235  -0.001295   0.000719  -0.000535
     51       0.004303   0.070062  -0.000039  -0.000274   0.000314   0.000033
     52       0.010674   0.175266   0.000075  -0.000686   0.000539  -0.000205
     53      -0.015965  -0.263305  -0.000225   0.001130  -0.000626   0.000387


-----------
IR SPECTRUM
-----------

 Mode    freq (cm**-1)   T**2         TX         TY         TZ
-------------------------------------------------------------------
   6:        60.10    1.647363  (  0.083286  -0.015868  -1.280693)
   7:       108.93    1.507423  (  0.176463   0.015539  -1.214925)
   8:       129.01    0.111723  (  0.015876  -0.084140   0.323097)
   9:       163.91    1.500048  (  0.027909  -1.221089   0.090617)
  10:       212.92    2.406313  (  0.197394  -0.024775  -1.538420)
  11:       328.45   17.617062  (  4.046941  -1.070314   0.306191)
  12:       363.13    0.100866  ( -0.286226   0.085018  -0.108225)
  13:       417.93    0.010392  (  0.086379  -0.004194  -0.053972)
  14:       459.61    0.343276  (  0.378226   0.213562   0.393207)
  15:       491.72    4.805134  ( -1.689394  -1.394156  -0.086083)
  16:       628.86    0.342645  (  0.580688  -0.055537   0.048603)
  17:       695.02    7.137283  (  2.413128   1.127193  -0.208640)
  18:       715.38    6.653259  (  0.204389  -0.057913  -2.570628)
  19:       728.62   82.805427  (  0.611166  -0.266530  -9.075289)
  20:       835.21    0.369397  (  0.401130   0.400335   0.219598)
  21:       857.12    6.744204  ( -0.967173  -2.407360  -0.115746)
  22:       874.58    0.024555  (  0.065659   0.008941   0.142000)
  23:       973.69    0.822690  ( -0.050279  -0.125088  -0.896948)
  24:      1017.39    0.161442  ( -0.332908   0.020758  -0.224018)
  25:      1019.95    2.067690  ( -1.318272   0.574324   0.000543)
  26:      1036.28    0.020563  ( -0.118008   0.021732  -0.078518)
  27:      1042.30    6.167776  ( -0.142610   2.470374   0.211399)
  28:      1059.47   15.741540  ( -3.276290  -2.224100  -0.246668)
  29:      1099.90   12.942328  (  2.971613  -2.011760   0.254300)
  30:      1166.50   17.674134  (  4.173504   0.285504   0.417715)
  31:      1170.74    0.916872  (  0.771028   0.566205   0.042423)
  32:      1174.04    0.740145  ( -0.393959   0.006769  -0.764785)
  33:      1185.25   40.098025  (  6.195031   1.233768   0.444334)
  34:      1223.76   60.022004  ( -7.647093   1.077350  -0.619104)
  35:      1320.89   10.899384  ( -3.198340  -0.798737  -0.178961)
  36:      1349.93  513.249462  ( 22.598325   0.910051   1.317939)
  37:      1409.72    3.689045  ( -0.347420  -1.888813   0.026997)
  38:      1454.63   10.889745  ( -0.907730  -0.116904  -3.170505)
  39:      1461.33   60.020316  ( -7.704465  -0.812998  -0.023918)
  40:      1476.32    8.358848  (  0.182080   2.882840   0.122183)
  41:      1490.62   24.741496  (  4.603765  -1.851074   0.346938)
  42:      1536.44    7.710300  ( -2.653218   0.788265  -0.222202)
  43:      1670.38    3.468464  ( -0.849358  -1.656906  -0.041425)
  44:      1691.03   16.417357  (  3.738802   1.554097   0.153293)
  45:      1860.47  246.067611  ( -1.566215 -15.608125  -0.032083)
  46:      3067.43   34.802265  ( -5.738754  -1.252437  -0.548061)
  47:      3162.03   12.846766  (  0.544445   0.054046  -3.542234)
  48:      3202.97    0.291891  ( -0.538581  -0.042677  -0.000934)
  49:      3204.21    9.013334  (  2.171947  -2.054205   0.276078)
  50:      3215.89    6.911318  (  0.275883  -2.613303   0.076529)
  51:      3222.99    4.152381  (  1.837017   0.880899   0.042019)
  52:      3233.01    6.229514  (  2.491449   0.038510   0.143913)
  53:      3244.52    1.095065  ( -0.322624  -0.995429  -0.010012)

The first frequency considered to be a vibration is 6
The total number of vibrations considered is 48


--------------------------
THERMOCHEMISTRY AT 298.15K
--------------------------

Temperature         ... 298.15 K
Pressure            ... 1.00 atm
Total Mass          ... 136.15 AMU

Throughout the following assumptions are being made:
  (1) The electronic state is orbitally nondegenerate
  (2) There are no thermally accessible electronically excited states
  (3) Hindered rotations indicated by low frequency modes are not
      treated as such but are treated as vibrations and this may
      cause some error
  (4) All equations used are the standard statistical mechanics
      equations for an ideal gas
  (5) All vibrations are strictly harmonic

freq.      60.10  E(vib)   ...       0.51 
freq.     108.93  E(vib)   ...       0.45 
freq.     129.01  E(vib)   ...       0.43 
freq.     163.91  E(vib)   ...       0.39 
freq.     212.92  E(vib)   ...       0.34 
freq.     328.45  E(vib)   ...       0.24 
freq.     363.13  E(vib)   ...       0.22 
freq.     417.93  E(vib)   ...       0.18 
freq.     459.61  E(vib)   ...       0.16 
freq.     491.72  E(vib)   ...       0.14 
freq.     628.86  E(vib)   ...       0.09 
freq.     695.02  E(vib)   ...       0.07 
freq.     715.38  E(vib)   ...       0.07 
freq.     728.62  E(vib)   ...       0.06 
freq.     835.21  E(vib)   ...       0.04 
freq.     857.12  E(vib)   ...       0.04 
freq.     874.58  E(vib)   ...       0.04 
freq.     973.69  E(vib)   ...       0.03 
freq.    1017.39  E(vib)   ...       0.02 
freq.    1019.95  E(vib)   ...       0.02 
freq.    1036.28  E(vib)   ...       0.02 
freq.    1042.30  E(vib)   ...       0.02 
freq.    1059.47  E(vib)   ...       0.02 
freq.    1099.90  E(vib)   ...       0.02 
freq.    1166.50  E(vib)   ...       0.01 
freq.    1170.74  E(vib)   ...       0.01 
freq.    1174.04  E(vib)   ...       0.01 
freq.    1185.25  E(vib)   ...       0.01 
freq.    1223.76  E(vib)   ...       0.01 
freq.    1320.89  E(vib)   ...       0.01 
freq.    1349.93  E(vib)   ...       0.01 
freq.    1409.72  E(vib)   ...       0.00 
freq.    1454.63  E(vib)   ...       0.00 
freq.    1461.33  E(vib)   ...       0.00 
freq.    1476.32  E(vib)   ...       0.00 
freq.    1490.62  E(vib)   ...       0.00 
freq.    1536.44  E(vib)   ...       0.00 
freq.    1670.38  E(vib)   ...       0.00 
freq.    1691.03  E(vib)   ...       0.00 
freq.    1860.47  E(vib)   ...       0.00 
freq.    3067.43  E(vib)   ...       0.00 
freq.    3162.03  E(vib)   ...       0.00 
freq.    3202.97  E(vib)   ...       0.00 
freq.    3204.21  E(vib)   ...       0.00 
freq.    3215.89  E(vib)   ...       0.00 
freq.    3222.99  E(vib)   ...       0.00 
freq.    3233.01  E(vib)   ...       0.00 
freq.    3244.52  E(vib)   ...       0.00 

------------
INNER ENERGY
------------

The inner energy is: U= E(el) + E(ZPE) + E(vib) + E(rot) + E(trans)
    E(el)   - is the total energy from the electronic structure calculation
              = E(kin-el) + E(nuc-el) + E(el-el) + E(nuc-nuc)
    E(ZPE)  - the the zero temperature vibrational energy from the frequency calculation
    E(vib)  - the the finite temperature correction to E(ZPE) due to population
              of excited vibrational states
    E(rot)  - is the rotational thermal energy
    E(trans)- is the translational thermal energy

Summary of contributions to the inner energy U:
Electronic energy                ...   -459.28686104 Eh
Zero point energy                ...      0.14469684 Eh      90.80 kcal/mol
Thermal vibrational correction   ...      0.00591832 Eh       3.71 kcal/mol
Thermal rotational correction    ...      0.00141627 Eh       0.89 kcal/mol
Thermal translational correction ...      0.00141627 Eh       0.89 kcal/mol
-----------------------------------------------------------------------
Total thermal energy                   -459.13341335 Eh


Summary of corrections to the electronic energy:
(perhaps to be used in another calculation)
Total thermal correction                  0.00875086 Eh       5.49 kcal/mol
Non-thermal (ZPE) correction              0.14469684 Eh      90.80 kcal/mol
-----------------------------------------------------------------------
Total correction                          0.15344770 Eh      96.29 kcal/mol


--------
ENTHALPY
--------

The enthalpy is H = U + kB*T
                kB is Boltzmann's constant
Total free energy                 ...   -459.13341335 Eh 
Thermal Enthalpy correction       ...      0.00094421 Eh       0.59 kcal/mol
-----------------------------------------------------------------------
Total Enthalpy                    ...   -459.13246914 Eh


Vibrational entropy computed according to the QRRHO of S. Grimme
Chem.Eur.J. 2012 18 9955


-------
ENTROPY
-------

The entropy contributions are T*S = T*(S(el)+S(vib)+S(rot)+S(trans)
     S(el)   - electronic entropy
     S(vib)  - vibrational entropy
     S(rot)  - rotational entropy
     S(trans)- translational entropy
The entropies will be listed as mutliplied by the temperature to get
units of energy

Electronic entropy                ...      0.00000000 Eh      0.00 kcal/mol
Vibrational entropy               ...      0.01015977 Eh      6.38 kcal/mol
Rotational entropy                ...      0.01295157 Eh      8.13 kcal/mol
Translational entropy             ...      0.01930829 Eh     12.12 kcal/mol
-----------------------------------------------------------------------
Final entropy term                ...      0.04241962 Eh     26.62 kcal/mol


CAUTION: The rotational entropy is not quite correctly treated here
         because it includes a symmetry number that is not yet correctly
         implemented in ORCA!
For a nonlinear molecule the correct rotational entropy is:
    S(rot) = R*(ln(qrot/sn)+1.5)
    R    = 8.31441 J/mol/K = 1.987191683e-3 kcal/mol/K
    qrot = 606744.7487533
    sn is the rotational symmetry number. We have assumed 3 here
       if it is different for your molecule then you should correct
       the printed rotational entropy by manually evaluating the equation
       as given above

For convenience we print out the resulting values for sn=1 - 12:
 sn= 1  qrot/sn=  606744.7488 T*S(rot)=     8.78 kcal/mol T*S(tot)=    27.27 kcal/mol
 sn= 2  qrot/sn=  303372.3744 T*S(rot)=     8.37 kcal/mol T*S(tot)=    26.86 kcal/mol
 sn= 3  qrot/sn=  202248.2496 T*S(rot)=     8.13 kcal/mol T*S(tot)=    26.62 kcal/mol
 sn= 4  qrot/sn=  151686.1872 T*S(rot)=     7.96 kcal/mol T*S(tot)=    26.45 kcal/mol
 sn= 5  qrot/sn=  121348.9498 T*S(rot)=     7.82 kcal/mol T*S(tot)=    26.32 kcal/mol
 sn= 6  qrot/sn=  101124.1248 T*S(rot)=     7.72 kcal/mol T*S(tot)=    26.21 kcal/mol
 sn= 7  qrot/sn=   86677.8213 T*S(rot)=     7.63 kcal/mol T*S(tot)=    26.12 kcal/mol
 sn= 8  qrot/sn=   75843.0936 T*S(rot)=     7.55 kcal/mol T*S(tot)=    26.04 kcal/mol
 sn= 9  qrot/sn=   67416.0832 T*S(rot)=     7.48 kcal/mol T*S(tot)=    25.97 kcal/mol
 sn=10  qrot/sn=   60674.4749 T*S(rot)=     7.41 kcal/mol T*S(tot)=    25.91 kcal/mol
 sn=11  qrot/sn=   55158.6135 T*S(rot)=     7.36 kcal/mol T*S(tot)=    25.85 kcal/mol
 sn=12  qrot/sn=   50562.0624 T*S(rot)=     7.31 kcal/mol T*S(tot)=    25.80 kcal/mol


-------------------
GIBBS FREE ENTHALPY
-------------------

The Gibbs free enthalpy is G = H - T*S

Total enthalpy                    ...   -459.13246914 Eh 
Total entropy correction          ...     -0.04241962 Eh    -26.62 kcal/mol
-----------------------------------------------------------------------
Final Gibbs free enthalpy         ...   -459.17488876 Eh

For completeness - the Gibbs free enthalpy minus the electronic energy
G-E(el)                           ...      0.11197228 Eh     70.26 kcal/mol


Timings for individual modules:

Sum of individual times         ...      336.011 sec (=   5.600 min)
GTO integral calculation        ...        2.567 sec (=   0.043 min)   0.8 %
SCF iterations                  ...      120.862 sec (=   2.014 min)  36.0 %
SCF Gradient evaluation         ...       35.192 sec (=   0.587 min)  10.5 %
Geometry relaxation             ...        1.329 sec (=   0.022 min)   0.4 %
Analytical frequency calculation...      176.061 sec (=   2.934 min)  52.4 %
                             ****ORCA TERMINATED NORMALLY****
TOTAL RUN TIME: 0 days 0 hours 5 minutes 38 seconds 506 msec
