
                                 *****************
                                 * O   R   C   A *
                                 *****************

           --- An Ab Initio, DFT and Semiempirical electronic structure package ---

                  #######################################################
                  #                        -***-                        #
                  #          Department of theory and spectroscopy      #
                  #               Directorship: Frank Neese             #
                  #        Max Planck Institute fuer Kohlenforschung    #
                  #                Kaiser Wilhelm Platz 1               #
                  #                 D-45470 Muelheim/Ruhr               #
                  #                      Germany                        #
                  #                                                     #
                  #                  All rights reserved                #
                  #                        -***-                        #
                  #######################################################


                         Program Version 4.2.1 -  RELEASE  -


 With contributions from (in alphabetic order):
   Daniel Aravena         : Magnetic Suceptibility
   Michael Atanasov       : Ab Initio Ligand Field Theory (pilot matlab implementation)
   Alexander A. Auer      : GIAO ZORA, VPT2
   Ute Becker             : Parallelization
   Giovanni Bistoni       : ED, misc. LED, open-shell LED, HFLD
   Martin Brehm           : Molecular dynamics
   Dmytro Bykov           : SCF Hessian
   Vijay G. Chilkuri      : MRCI spin determinant printing, contributions to CSF-ICE
   Dipayan Datta          : RHF DLPNO-CCSD density
   Achintya Kumar Dutta   : EOM-CC, STEOM-CC
   Dmitry Ganyushin       : Spin-Orbit,Spin-Spin,Magnetic field MRCI
   Miquel Garcia          : C-PCM Hessian, Gaussian charge scheme
   Yang Guo               : DLPNO-NEVPT2, CIM, IAO-localization
   Andreas Hansen         : Spin unrestricted coupled pair/coupled cluster methods
   Benjamin Helmich-Paris : CASSCF linear response (MC-RPA)
   Lee Huntington         : MR-EOM, pCC
   Robert Izsak           : Overlap fitted RIJCOSX, COSX-SCS-MP3, EOM
   Christian Kollmar      : KDIIS, OOCD, Brueckner-CCSD(T), CCSD density
   Simone Kossmann        : Meta GGA functionals, TD-DFT gradient, OOMP2, MP2 Hessian
   Martin Krupicka        : AUTO-CI
   Lucas Lang             : DCDCAS
   Dagmar Lenk            : GEPOL surface, SMD
   Dimitrios Liakos       : Extrapolation schemes; Compound Job, initial MDCI parallelization
   Dimitrios Manganas     : Further ROCIS development; embedding schemes
   Dimitrios Pantazis     : SARC Basis sets
   Taras Petrenko         : DFT Hessian,TD-DFT gradient, ASA, ECA, R-Raman, ABS, FL, XAS/XES, NRVS
   Peter Pinski           : DLPNO-MP2, DLPNO-MP2 Gradient
   Christoph Reimann      : Effective Core Potentials
   Marius Retegan         : Local ZFS, SOC
   Christoph Riplinger    : Optimizer, TS searches, QM/MM, DLPNO-CCSD(T), (RO)-DLPNO pert. Triples
   Tobias Risthaus        : Range-separated hybrids, TD-DFT gradient, RPA, STAB
   Michael Roemelt        : Original ROCIS implementation
   Masaaki Saitow         : Open-shell DLPNO-CCSD energy and density
   Barbara Sandhoefer     : DKH picture change effects
   Avijit Sen             : IP-ROCIS
   Kantharuban Sivalingam : CASSCF convergence, NEVPT2, FIC-MRCI
   Bernardo de Souza      : ESD, SOC TD-DFT
   Georgi Stoychev        : AutoAux, RI-MP2 NMR
   Willem Van den Heuvel  : Paramagnetic NMR
   Boris Wezisla          : Elementary symmetry handling
   Frank Wennmohs         : Technical directorship


 We gratefully acknowledge several colleagues who have allowed us to
 interface, adapt or use parts of their codes:
   Stefan Grimme, W. Hujo, H. Kruse,             : VdW corrections, initial TS optimization,
                  C. Bannwarth                     DFT functionals, gCP, sTDA/sTD-DF
   Ed Valeev, F. Pavosevic, A. Kumar             : LibInt (2-el integral package), F12 methods
   Garnet Chan, S. Sharma, J. Yang, R. Olivares  : DMRG
   Ulf Ekstrom                                   : XCFun DFT Library
   Mihaly Kallay                                 : mrcc  (arbitrary order and MRCC methods)
   Andreas Klamt, Michael Diedenhofen            : otool_cosmo (COSMO solvation model)
   Jiri Pittner, Ondrej Demel                    : Mk-CCSD
   Frank Weinhold                                : gennbo (NPA and NBO analysis)
   Christopher J. Cramer and Donald G. Truhlar   : smd solvation model
   Lars Goerigk                                  : TD-DFT with DH, B97 family of functionals
   V. Asgeirsson, H. Jonsson                     : NEB implementation
   FAccTs GmbH                                   : IRC, NEB, NEB-TS, Multilevel, MM, QM/MM, CI optimization
   S Lehtola, MJT Oliveira, MAL Marques          : LibXC Library


 Your calculation uses the libint2 library for the computation of 2-el integrals
 For citations please refer to: http://libint.valeyev.net

 Your ORCA version has been built with support for libXC version: 4.2.3
 For citations please refer to: https://tddft.org/programs/libxc/

 This ORCA versions uses:
   CBLAS   interface :  Fast vector & matrix operations
   LAPACKE interface :  Fast linear algebra routines
   SCALAPACK package :  Parallel linear algebra routines


----- Orbital basis set information -----
Your calculation utilizes the basis: def2-SVP
   F. Weigend and R. Ahlrichs, Phys. Chem. Chem. Phys. 7, 3297 (2005).

================================================================================
                                        WARNINGS
                       Please study these warnings very carefully!
================================================================================


INFO   : the flag for use of LIBINT has been found!

================================================================================
                                       INPUT FILE
================================================================================
NAME = CO2_sp_orca.inp
|  1> ! PBE0 Freq def2-SVP
|  2> %geom MaxIter 100 end
|  3> %output 
|  4> xyzfile=True 
|  5> end 
|  6> %scf 
|  7> maxiter 250 
|  8> end
|  9> %output
| 10> Print[P_Hirshfeld] = 1
| 11> end
| 12> % maxcore
| 13> 4000
| 14> %pal nprocs 2
| 15> end
| 16> *xyz 0 1
| 17> O   -1.15930098  -0.00037350   0.00026492 
| 18> C    0.00003371  -0.00001333   0.00000976 
| 19> O    1.15936727   0.00038683  -0.00027467 
| 20> *
| 21> 
| 22>                          ****END OF INPUT****
================================================================================

                       ****************************
                       * Single Point Calculation *
                       ****************************

---------------------------------
CARTESIAN COORDINATES (ANGSTROEM)
---------------------------------
  O     -1.159301   -0.000373    0.000265
  C      0.000034   -0.000013    0.000010
  O      1.159367    0.000387   -0.000275

----------------------------
CARTESIAN COORDINATES (A.U.)
----------------------------
  NO LB      ZA    FRAG     MASS         X           Y           Z
   0 O     8.0000    0    15.999   -2.190761   -0.000706    0.000501
   1 C     6.0000    0    12.011    0.000064   -0.000025    0.000018
   2 O     8.0000    0    15.999    2.190887    0.000731   -0.000519

--------------------------------
INTERNAL COORDINATES (ANGSTROEM)
--------------------------------
 O      0   0   0     0.000000000000     0.00000000     0.00000000
 C      1   0   0     1.159334774026     0.00000000     0.00000000
 O      2   1   0     1.159333663951   179.99755079     0.00000000

---------------------------
INTERNAL COORDINATES (A.U.)
---------------------------
 O      0   0   0     0.000000000000     0.00000000     0.00000000
 C      1   0   0     2.190825220441     0.00000000     0.00000000
 O      2   1   0     2.190823122703   179.99755079     0.00000000

---------------------
BASIS SET INFORMATION
---------------------
There are 2 groups of distinct atoms

 Group   1 Type O   : 7s4p1d contracted to 3s2p1d pattern {511/31/1}
 Group   2 Type C   : 7s4p1d contracted to 3s2p1d pattern {511/31/1}

Atom   0O    basis set group =>   1
Atom   1C    basis set group =>   2
Atom   2O    basis set group =>   1
[1598604955.967969] [aleph:23276:0]            sys.c:618  UCX  ERROR shmget(size=2097152 flags=0xfb0) for mm_recv_desc failed: Operation not permitted, please check shared memory limits by 'ipcs -l'
[1598604955.969740] [aleph:23277:0]            sys.c:618  UCX  ERROR shmget(size=2097152 flags=0xfb0) for mm_recv_desc failed: Operation not permitted, please check shared memory limits by 'ipcs -l'
[1598604955.978849] [aleph:23276:0]            sys.c:618  UCX  ERROR shmget(size=2097152 flags=0xb80) for ucp_am_bufs failed: Operation not permitted, please check shared memory limits by 'ipcs -l'


           ************************************************************
           *        Program running with 2 parallel MPI-processes     *
           *              working on a common directory               *
           ************************************************************
------------------------------------------------------------------------------
                           ORCA GTO INTEGRAL CALCULATION
------------------------------------------------------------------------------

                         BASIS SET STATISTICS AND STARTUP INFO

 # of primitive gaussian shells          ...   36
 # of primitive gaussian functions       ...   72
 # of contracted shells                  ...   18
 # of contracted basis functions         ...   42
 Highest angular momentum                ...    2
 Maximum contraction depth               ...    5
 Integral package used                   ... LIBINT
 Integral threshhold            Thresh   ...  1.000e-10
 Primitive cut-off              TCut     ...  1.000e-11


------------------------------ INTEGRAL EVALUATION ----------------------------


 * One electron integrals 
 Pre-screening matrix                    ... done
 Shell pair data                         ... done (   0.000 sec)

[1598604957.294900] [aleph:23291:0]            sys.c:618  UCX  ERROR shmget(size=2097152 flags=0xfb0) for mm_recv_desc failed: Operation not permitted, please check shared memory limits by 'ipcs -l'
[1598604957.297123] [aleph:23292:0]            sys.c:618  UCX  ERROR shmget(size=2097152 flags=0xfb0) for mm_recv_desc failed: Operation not permitted, please check shared memory limits by 'ipcs -l'
[1598604957.306487] [aleph:23291:0]            sys.c:618  UCX  ERROR shmget(size=2097152 flags=0xb80) for ucp_am_bufs failed: Operation not permitted, please check shared memory limits by 'ipcs -l'


           ************************************************************
           *        Program running with 2 parallel MPI-processes     *
           *              working on a common directory               *
           ************************************************************
-------------------------------------------------------------------------------
                                 ORCA SCF
-------------------------------------------------------------------------------

------------
SCF SETTINGS
------------
Hamiltonian:
 Density Functional     Method          .... DFT(GTOs)
 Exchange Functional    Exchange        .... PBE
   PBE kappa parameter   XKappa         ....  0.804000
   PBE mue parameter    XMuePBE         ....  0.219520
 Correlation Functional Correlation     .... PBE
   PBE beta parameter  CBetaPBE         ....  0.066725
 LDA part of GGA corr.  LDAOpt          .... PW91-LDA
 Gradients option       PostSCFGGA      .... off
 Hybrid DFT is turned on
   Fraction HF Exchange ScalHFX         ....  0.250000
   Scaling of DF-GGA-X  ScalDFX         ....  0.750000
   Scaling of DF-GGA-C  ScalDFC         ....  1.000000
   Scaling of DF-LDA-C  ScalLDAC        ....  1.000000
   Perturbative correction              ....  0.000000
   Density functional embedding theory  .... OFF
   NL short-range parameter             ....  6.900000


General Settings:
 Integral files         IntName         .... CO2_sp_orca
 Hartree-Fock type      HFTyp           .... RHF
 Total Charge           Charge          ....    0
 Multiplicity           Mult            ....    1
 Number of Electrons    NEL             ....   22
 Basis Dimension        Dim             ....   42
 Nuclear Repulsion      ENuc            ....     58.4255010823 Eh

Convergence Acceleration:
 DIIS                   CNVDIIS         .... on
   Start iteration      DIISMaxIt       ....    12
   Startup error        DIISStart       ....  0.200000
   # of expansion vecs  DIISMaxEq       ....     5
   Bias factor          DIISBfac        ....   1.050
   Max. coefficient     DIISMaxC        ....  10.000
 Newton-Raphson         CNVNR           .... off
 SOSCF                  CNVSOSCF        .... on
   Start iteration      SOSCFMaxIt      ....   150
   Startup grad/error   SOSCFStart      ....  0.003300
 Level Shifting         CNVShift        .... on
   Level shift para.    LevelShift      ....    0.2500
   Turn off err/grad.   ShiftErr        ....    0.0010
 Zerner damping         CNVZerner       .... off
 Static damping         CNVDamp         .... on
   Fraction old density DampFac         ....    0.7000
   Max. Damping (<1)    DampMax         ....    0.9800
   Min. Damping (>=0)   DampMin         ....    0.0000
   Turn off err/grad.   DampErr         ....    0.1000
 Fernandez-Rico         CNVRico         .... off

SCF Procedure:
 Maximum # iterations   MaxIter         ....   250
 SCF integral mode      SCFMode         .... Direct
   Integral package                     .... LIBINT
 Reset frequency        DirectResetFreq ....    20
 Integral Threshold     Thresh          ....  1.000e-10 Eh
 Primitive CutOff       TCut            ....  1.000e-11 Eh

Convergence Tolerance:
 Convergence Check Mode ConvCheckMode   .... Total+1el-Energy
 Convergence forced     ConvForced      .... 0
 Energy Change          TolE            ....  1.000e-06 Eh
 1-El. energy change                    ....  1.000e-03 Eh
 Orbital Gradient       TolG            ....  5.000e-05
 Orbital Rotation angle TolX            ....  5.000e-05
 DIIS Error             TolErr          ....  1.000e-06


Diagonalization of the overlap matrix:
Smallest eigenvalue                        ... 9.115e-03
Time for diagonalization                   ...    0.001 sec
Threshold for overlap eigenvalues          ... 1.000e-08
Number of eigenvalues below threshold      ... 0
Time for construction of square roots      ...    0.001 sec
Total time needed                          ...    0.002 sec

-------------------
DFT GRID GENERATION
-------------------

General Integration Accuracy     IntAcc      ...  4.340
Radial Grid Type                 RadialGrid  ... Gauss-Chebyshev
Angular Grid (max. acc.)         AngularGrid ... Lebedev-110
Angular grid pruning method      GridPruning ... 3 (G Style)
Weight generation scheme         WeightScheme... Becke
Basis function cutoff            BFCut       ...    1.0000e-10
Integration weight cutoff        WCut        ...    1.0000e-14
Grids for H and He will be reduced by one unit

# of grid points (after initial pruning)     ...   5088 (   0.0 sec)
# of grid points (after weights+screening)   ...   5034 (   0.0 sec)
nearest neighbour list constructed           ...    0.0 sec
Grid point re-assignment to atoms done       ...    0.0 sec
Grid point division into batches done        ...    0.0 sec
Reduced shell lists constructed in    0.0 sec

Total number of grid points                  ...     5034
Total number of batches                      ...       81
Average number of points per batch           ...       62
Average number of grid points per atom       ...     1678
Average number of shells per batch           ...    14.88 (82.67%)
Average number of basis functions per batch  ...    36.02 (85.77%)
Average number of large shells per batch     ...    13.45 (90.40%)
Average number of large basis fcns per batch ...    32.40 (89.95%)
Maximum spatial batch extension              ...  13.84, 19.91, 19.31 au
Average spatial batch extension              ...   2.54,  3.54,  3.43 au

Time for grid setup =    0.027 sec

------------------------------
INITIAL GUESS: MODEL POTENTIAL
------------------------------
Loading Hartree-Fock densities                     ... done
Calculating cut-offs                               ... done
Setting up the integral package                    ... done
Initializing the effective Hamiltonian             ... done
Starting the Coulomb interaction                   ... done (   0.0 sec)
Reading the grid                                   ... done
Mapping shells                                     ... done
Starting the XC term evaluation                    ... done (   0.0 sec)
  promolecular density results
     # of electrons  =     22.000116642
     EX              =    -21.390076655
     EC              =     -0.731994281
     EX+EC           =    -22.122070936
Transforming the Hamiltonian                       ... done (   0.0 sec)
Diagonalizing the Hamiltonian                      ... done (   0.0 sec)
Back transforming the eigenvectors                 ... done (   0.0 sec)
Now organizing SCF variables                       ... done
                      ------------------
                      INITIAL GUESS DONE (   0.2 sec)
                      ------------------
--------------
SCF ITERATIONS
--------------
ITER       Energy         Delta-E        Max-DP      RMS-DP      [F,P]     Damp
               ***  Starting incremental Fock matrix formation  ***
  0   -188.1481971167   0.000000000000 0.07539370  0.00543109  0.1916734 0.7000
  1   -188.1960972866  -0.047900169876 0.03465469  0.00278657  0.0813824 0.7000
                               ***Turning on DIIS***
  2   -188.2108160911  -0.014718804512 0.03816908  0.00285028  0.0219562 0.0000
  3   -188.2386175100  -0.027801418943 0.02356116  0.00176700  0.0442327 0.0000
  4   -188.2432871885  -0.004669678438 0.00611153  0.00041062  0.0059256 0.0000
                      *** Initiating the SOSCF procedure ***
                           *** Shutting down DIIS ***
                      *** Re-Reading the Fockian *** 
                      *** Removing any level shift *** 
ITER      Energy       Delta-E        Grad      Rot      Max-DP    RMS-DP
  5   -188.24339721  -0.0001100189  0.000447  0.000447  0.001578  0.000103
               *** Restarting incremental Fock matrix formation ***
  6   -188.24340003  -0.0000028214  0.000112  0.000106  0.000388  0.000018
  7   -188.24339998   0.0000000456  0.000120  0.000081  0.000147  0.000010
                 **** Energy Check signals convergence ****
              ***Rediagonalizing the Fockian in SOSCF/NRSCF***

               *****************************************************
               *                     SUCCESS                       *
               *           SCF CONVERGED AFTER   8 CYCLES          *
               *****************************************************

Setting up the final grid:

General Integration Accuracy     IntAcc      ...  4.670
Radial Grid Type                 RadialGrid  ... Gauss-Chebyshev
Angular Grid (max. acc.)         AngularGrid ... Lebedev-302
Angular grid pruning method      GridPruning ... 3 (G Style)
Weight generation scheme         WeightScheme... Becke
Basis function cutoff            BFCut       ...    1.0000e-10
Integration weight cutoff        WCut        ...    1.0000e-14
Grids for H and He will be reduced by one unit

# of grid points (after initial pruning)     ...  18636 (   0.0 sec)
# of grid points (after weights+screening)   ...  18440 (   0.0 sec)
nearest neighbour list constructed           ...    0.0 sec
Grid point re-assignment to atoms done       ...    0.0 sec
Grid point division into batches done        ...    0.1 sec
Reduced shell lists constructed in    0.1 sec

Total number of grid points                  ...    18440
Total number of batches                      ...      289
Average number of points per batch           ...       63
Average number of grid points per atom       ...     6147
Average number of shells per batch           ...    12.86 (71.46%)
Average number of basis functions per batch  ...    31.27 (74.46%)
Average number of large shells per batch     ...    11.00 (85.52%)
Average number of large basis fcns per batch ...    26.22 (83.84%)
Maximum spatial batch extension              ...  17.57, 18.29, 18.29 au
Average spatial batch extension              ...   1.58,  2.17,  2.17 au

Final grid set up in    0.1 sec
Final integration                            ... done (   0.0 sec)
Change in XC energy                          ...    -0.000095962
Integrated number of electrons               ...    21.999985634
Previous integrated no of electrons          ...    21.999754044

----------------
TOTAL SCF ENERGY
----------------

Total Energy       :         -188.24349606 Eh           -5122.36594 eV

Components:
Nuclear Repulsion  :           58.42550108 Eh            1589.83871 eV
Electronic Energy  :         -246.66899715 Eh           -6712.20465 eV
One Electron Energy:         -372.67192279 Eh          -10140.91857 eV
Two Electron Energy:          126.00292565 Eh            3428.71392 eV

Virial components:
Potential Energy   :         -375.24277629 Eh          -10210.87505 eV
Kinetic Energy     :          186.99928023 Eh            5088.50911 eV
Virial Ratio       :            2.00665359


DFT components:
N(Alpha)           :       10.999992817148 electrons
N(Beta)            :       10.999992817148 electrons
N(Total)           :       21.999985634296 electrons
E(X)               :      -16.204945036384 Eh       
E(C)               :       -0.745411419372 Eh       
E(XC)              :      -16.950356455756 Eh       
DFET-embed. en.    :        0.000000000000 Eh       

---------------
SCF CONVERGENCE
---------------

  Last Energy change         ...   -1.1774e-07  Tolerance :   1.0000e-06
  Last MAX-Density change    ...    5.2613e-06  Tolerance :   1.0000e-05
  Last RMS-Density change    ...    5.0171e-07  Tolerance :   1.0000e-06
  Last Orbital Gradient      ...    9.0042e-06  Tolerance :   5.0000e-05
  Last Orbital Rotation      ...    3.3600e-06  Tolerance :   5.0000e-05

             **** THE GBW FILE WAS UPDATED (CO2_sp_orca.gbw) ****
             **** DENSITY FILE WAS UPDATED (CO2_sp_orca.scfp) ****
             **** ENERGY FILE WAS UPDATED (CO2_sp_orca.en.tmp) ****
             **** THE GBW FILE WAS UPDATED (CO2_sp_orca.gbw) ****
             **** DENSITY FILE WAS UPDATED (CO2_sp_orca.scfp) ****
----------------
ORBITAL ENERGIES
----------------

  NO   OCC          E(Eh)            E(eV) 
   0   2.0000     -19.292371      -524.9721 
   1   2.0000     -19.292305      -524.9703 
   2   2.0000     -10.423070      -283.6262 
   3   2.0000      -1.181539       -32.1513 
   4   2.0000      -1.140759       -31.0416 
   5   2.0000      -0.572670       -15.5831 
   6   2.0000      -0.536855       -14.6086 
   7   2.0000      -0.536855       -14.6086 
   8   2.0000      -0.533980       -14.5303 
   9   2.0000      -0.386808       -10.5256 
  10   2.0000      -0.386808       -10.5256 
  11   0.0000       0.043873         1.1939 
  12   0.0000       0.043874         1.1939 
  13   0.0000       0.073704         2.0056 
  14   0.0000       0.356786         9.7086 
  15   0.0000       0.435362        11.8468 
  16   0.0000       0.435362        11.8468 
  17   0.0000       0.484364        13.1802 
  18   0.0000       0.779661        21.2157 
  19   0.0000       0.824994        22.4492 
  20   0.0000       0.924703        25.1625 
  21   0.0000       0.924703        25.1625 
  22   0.0000       1.115117        30.3439 
  23   0.0000       1.116819        30.3902 
  24   0.0000       1.116819        30.3902 
  25   0.0000       1.247116        33.9358 
  26   0.0000       1.527990        41.5787 
  27   0.0000       1.528025        41.5797 
  28   0.0000       1.580087        42.9964 
  29   0.0000       1.580353        43.0036 
  30   0.0000       1.580353        43.0036 
  31   0.0000       2.554700        69.5169 
  32   0.0000       2.555335        69.5342 
  33   0.0000       2.677501        72.8585 
  34   0.0000       2.678098        72.8747 
  35   0.0000       2.779019        75.6210 
  36   0.0000       2.779019        75.6210 
  37   0.0000       2.860938        77.8501 
  38   0.0000       3.562061        96.9286 
  39   0.0000       3.562061        96.9286 
  40   0.0000       3.562455        96.9393 
  41   0.0000       3.868900       105.2781 

                    ********************************
                    * MULLIKEN POPULATION ANALYSIS *
                    ********************************

-----------------------
MULLIKEN ATOMIC CHARGES
-----------------------
   0 O :   -0.160498
   1 C :    0.320994
   2 O :   -0.160496
Sum of atomic charges:   -0.0000000

--------------------------------
MULLIKEN REDUCED ORBITAL CHARGES
--------------------------------
  0 O s       :     3.739810  s :     3.739810
      pz      :     1.556359  p :     4.396755
      px      :     1.284036
      py      :     1.556359
      dz2     :     0.002451  d :     0.023933
      dxz     :     0.007065
      dyz     :     0.000000
      dx2y2   :     0.007353
      dxy     :     0.007065
  1 C s       :     2.952840  s :     2.952840
      pz      :     0.811556  p :     2.572471
      px      :     0.949360
      py      :     0.811556
      dz2     :     0.007625  d :     0.153695
      dxz     :     0.061598
      dyz     :     0.000000
      dx2y2   :     0.022875
      dxy     :     0.061598
  2 O s       :     3.739809  s :     3.739809
      pz      :     1.556358  p :     4.396754
      px      :     1.284037
      py      :     1.556358
      dz2     :     0.002451  d :     0.023933
      dxz     :     0.007065
      dyz     :     0.000000
      dx2y2   :     0.007353
      dxy     :     0.007065


                     *******************************
                     * LOEWDIN POPULATION ANALYSIS *
                     *******************************

----------------------
LOEWDIN ATOMIC CHARGES
----------------------
   0 O :   -0.070728
   1 C :    0.141454
   2 O :   -0.070726

-------------------------------
LOEWDIN REDUCED ORBITAL CHARGES
-------------------------------
  0 O s       :     3.531964  s :     3.531964
      pz      :     1.525284  p :     4.500349
      px      :     1.449781
      py      :     1.525284
      dz2     :     0.005333  d :     0.038415
      dxz     :     0.008542
      dyz     :     0.000000
      dx2y2   :     0.015999
      dxy     :     0.008542
  1 C s       :     2.808199  s :     2.808199
      pz      :     0.811962  p :     2.722976
      px      :     1.099051
      py      :     0.811962
      dz2     :     0.021649  d :     0.327371
      dxz     :     0.120387
      dyz     :     0.000000
      dx2y2   :     0.064948
      dxy     :     0.120387
  2 O s       :     3.531963  s :     3.531963
      pz      :     1.525283  p :     4.500348
      px      :     1.449782
      py      :     1.525283
      dz2     :     0.005333  d :     0.038415
      dxz     :     0.008542
      dyz     :     0.000000
      dx2y2   :     0.015999
      dxy     :     0.008542


                      *****************************
                      * MAYER POPULATION ANALYSIS *
                      *****************************

  NA   - Mulliken gross atomic population
  ZA   - Total nuclear charge
  QA   - Mulliken gross atomic charge
  VA   - Mayer's total valence
  BVA  - Mayer's bonded valence
  FA   - Mayer's free valence

  ATOM       NA         ZA         QA         VA         BVA        FA
  0 O      8.1605     8.0000    -0.1605     2.4118     2.4118     0.0000
  1 C      5.6790     6.0000     0.3210     4.3059     4.3059    -0.0000
  2 O      8.1605     8.0000    -0.1605     2.4118     2.4118     0.0000

  Mayer bond orders larger than 0.100000
B(  0-O ,  1-C ) :   2.1529 B(  0-O ,  2-O ) :   0.2588 B(  1-C ,  2-O ) :   2.1530 



------------------
HIRSHFELD ANALYSIS
------------------

Total integrated alpha density =     10.999877022
Total integrated beta density  =     10.999877022

  ATOM     CHARGE      SPIN    
   0 O   -0.179071    0.000000
   1 C    0.358387    0.000000
   2 O   -0.179070    0.000000

  TOTAL   0.000246    0.000000

-------
TIMINGS
-------

Total SCF time: 0 days 0 hours 0 min 1 sec 

Total time                  ....       1.664 sec
Sum of individual times     ....       1.467 sec  ( 88.1%)

Fock matrix formation       ....       1.161 sec  ( 69.8%)
  XC integration            ....       0.162 sec  ( 14.0% of F)
    Basis function eval.    ....       0.064 sec  ( 39.5% of XC)
    Density eval.           ....       0.025 sec  ( 15.2% of XC)
    XC-Functional eval.     ....       0.035 sec  ( 21.6% of XC)
    XC-Potential eval.      ....       0.026 sec  ( 16.2% of XC)
Diagonalization             ....       0.003 sec  (  0.2%)
Density matrix formation    ....       0.000 sec  (  0.0%)
Population analysis         ....       0.011 sec  (  0.7%)
Initial guess               ....       0.131 sec  (  7.9%)
Orbital Transformation      ....       0.000 sec  (  0.0%)
Orbital Orthonormalization  ....       0.000 sec  (  0.0%)
DIIS solution               ....       0.001 sec  (  0.1%)
SOSCF solution              ....       0.001 sec  (  0.1%)
Grid generation             ....       0.158 sec  (  9.5%)

-------------------------   --------------------
FINAL SINGLE POINT ENERGY      -188.243496063076
-------------------------   --------------------


                            ***************************************
                            *     ORCA property calculations      *
                            ***************************************

                                    ---------------------
                                    Active property flags
                                    ---------------------
   (+) Dipole Moment


------------------------------------------------------------------------------
                       ORCA ELECTRIC PROPERTIES CALCULATION
------------------------------------------------------------------------------

Dipole Moment Calculation                       ... on
Quadrupole Moment Calculation                   ... off
Polarizability Calculation                      ... off
GBWName                                         ... CO2_sp_orca.gbw
Electron density file                           ... CO2_sp_orca.scfp
The origin for moment calculation is the CENTER OF MASS  = ( 0.000063,  0.000002 -0.000002)

-------------
DIPOLE MOMENT
-------------
                                X             Y             Z
Electronic contribution:      0.00000      -0.00002       0.00002
Nuclear contribution   :     -0.00000       0.00000      -0.00000
                        -----------------------------------------
Total Dipole Moment    :      0.00000      -0.00002       0.00002
                        -----------------------------------------
Magnitude (a.u.)       :      0.00003
Magnitude (Debye)      :      0.00007



--------------------
Rotational spectrum 
--------------------
 
Rotational constants in cm-1: 3143918964.367973     0.391974     0.391974 
Rotational constants in MHz : 94252319408068.906250 11751.071280 11751.071279 

 Dipole components along the rotational axes: 
x,y,z [a.u.] :    -0.000003    -0.000027    -0.000000 
x,y,z [Debye]:    -0.000008    -0.000067    -0.000000 

 
[1598604960.105117] [aleph:23310:0]            sys.c:618  UCX  ERROR shmget(size=2097152 flags=0xfb0) for mm_recv_desc failed: Operation not permitted, please check shared memory limits by 'ipcs -l'
[1598604960.106928] [aleph:23311:0]            sys.c:618  UCX  ERROR shmget(size=2097152 flags=0xfb0) for mm_recv_desc failed: Operation not permitted, please check shared memory limits by 'ipcs -l'
[1598604960.116276] [aleph:23310:0]            sys.c:618  UCX  ERROR shmget(size=2097152 flags=0xb80) for ucp_am_bufs failed: Operation not permitted, please check shared memory limits by 'ipcs -l'


           ************************************************************
           *        Program running with 2 parallel MPI-processes     *
           *              working on a common directory               *
           ************************************************************

-------------------------------------------------------------------------------
                               ORCA SCF HESSIAN
-------------------------------------------------------------------------------

Hessian of the Kohn-Sham DFT energy:
Kohn-Sham wavefunction type                      ... RKS
Hartree-Fock exchange scaling                    ...    0.250
Number of operators                              ...    1
Number of atoms                                  ...    3
Basis set dimensions                             ...   42
Integral neglect threshold                       ... 1.0e-10
Integral primitive cutoff                        ... 1.0e-11

Setting up DFT Hessian calculations              ... 
Electron density on the grid                     ... found on disk
Electron density on the final grid               ... found on disk
Building xc-kernel on the grid                   ... done   (      0.0 sec)
Building xc-kernel on the final grid             ... done   (      0.0 sec)
                                                     done   (      0.0 sec)

Nuclear repulsion Hessian                        ... done   (      0.0 sec)

----------------------------------------------
Forming right-hand sides of CP-SCF equations     ...
----------------------------------------------
One electron integral derivatives                ... done   (      0.1 sec)
Transforming the overlap derivative matrices     ... done   (      0.0 sec)
Making the Q(x) pseudodensities                  ... done   (      0.0 sec)
Adding the E*S(x)*S(y) terms to the Hessian      ... done   (      0.0 sec)
Calculating energy weighted overlap derivatives  ... done   (      0.0 sec)
Two electron integral derivatives                ... done   (      0.2 sec)
Exchange-correlation integral derivatives        ... done   (      0.5 sec)
tr(F(y)Q(x)) contribution to the Hessian         ... done   (      0.0 sec)
Response fock operator R(S(x))                   ... done   (      0.2 sec)
XC Response fock operator R(S(x))                ... done   (      0.1 sec)
tr(F(y)S(x)) contribution to the Hessian         ... done   (      0.0 sec)
Transforming and finalizing RHSs                 ... done   (      0.0 sec)

----------------------------------------------
Solving the CP-SCF equations                     ...
----------------------------------------------
     CP-SCF ITERATION   0: 
     CP-SCF ITERATION   1:      0.005503588577
     CP-SCF ITERATION   2:      0.000154457404
     CP-SCF ITERATION   3:      0.000035909606
     CP-SCF ITERATION   4:      0.000000900344

                                                 ... done   (      1.1 sec)
Forming perturbed density Hessian contributions  ... done   (      0.0 sec)
Making the perturbed densities                   ... done   (      0.0 sec)
2nd integral derivative contribs                 ... done   (      0.6 sec)
Exchange-correlation Hessian                     ... done   (      0.6 sec)
Dipol derivatives                                ... done   (      0.1 sec)

Total SCF Hessian time: 0 days 0 hours 0 min 3 sec 

Writing the Hessian file to the disk             ... done


Maximum memory used throughout the entire calculation: 87.3 MB

-----------------------
VIBRATIONAL FREQUENCIES
-----------------------

Scaling factor for frequencies =  1.000000000  (already applied!)

   0:         0.00 cm**-1
   1:         0.00 cm**-1
   2:         0.00 cm**-1
   3:         0.00 cm**-1
   4:         0.00 cm**-1
   5:         0.00 cm**-1
   6:       667.21 cm**-1
   7:      1415.09 cm**-1
   8:      2516.90 cm**-1


------------
NORMAL MODES
------------

These modes are the Cartesian displacements weighted by the diagonal matrix
M(i,i)=1/sqrt(m[i]) where m[i] is the mass of the displaced atom
Thus, these vectors are normalized but *not* orthogonal

                  0          1          2          3          4          5    
      0       0.000000   0.000000   0.000000   0.000000   0.000000   0.000000
      1       0.000000   0.000000   0.000000   0.000000   0.000000   0.000000
      2       0.000000   0.000000   0.000000   0.000000   0.000000   0.000000
      3       0.000000   0.000000   0.000000   0.000000   0.000000   0.000000
      4       0.000000   0.000000   0.000000   0.000000   0.000000   0.000000
      5       0.000000   0.000000   0.000000   0.000000   0.000000   0.000000
      6       0.000000   0.000000   0.000000   0.000000   0.000000   0.000000
      7       0.000000   0.000000   0.000000   0.000000   0.000000   0.000000
      8       0.000000   0.000000   0.000000   0.000000   0.000000   0.000000
                   6          7          8    
      0       0.000108   0.707108  -0.331546
      1      -0.267540   0.000222  -0.000101
      2       0.195821  -0.000157   0.000071
      3      -0.000347  -0.000003   0.883262
      4       0.712743   0.000027   0.000283
      5      -0.521680  -0.000020  -0.000201
      6       0.000152  -0.707106  -0.331550
      7      -0.267540  -0.000242  -0.000112
      8       0.195822   0.000172   0.000080


-----------
IR SPECTRUM
-----------

 Mode    freq (cm**-1)   T**2         TX         TY         TZ
-------------------------------------------------------------------
   6:       667.21   35.899227  ( -0.006792   4.834830  -3.538870)
   7:      1415.09    0.000000  ( -0.000070   0.000088  -0.000064)
   8:      2516.90  650.227975  ( 25.499566   0.008319  -0.005903)

The first frequency considered to be a vibration is 6
The total number of vibrations considered is 3


--------------------------
THERMOCHEMISTRY AT 298.15K
--------------------------

Temperature         ... 298.15 K
Pressure            ... 1.00 atm
Total Mass          ... 44.01 AMU

Throughout the following assumptions are being made:
  (1) The electronic state is orbitally nondegenerate
  (2) There are no thermally accessible electronically excited states
  (3) Hindered rotations indicated by low frequency modes are not
      treated as such but are treated as vibrations and this may
      cause some error
  (4) All equations used are the standard statistical mechanics
      equations for an ideal gas
  (5) All vibrations are strictly harmonic

freq.     667.21  E(vib)   ...       0.08 
freq.    1415.09  E(vib)   ...       0.00 
freq.    2516.90  E(vib)   ...       0.00 

------------
INNER ENERGY
------------

The inner energy is: U= E(el) + E(ZPE) + E(vib) + E(rot) + E(trans)
    E(el)   - is the total energy from the electronic structure calculation
              = E(kin-el) + E(nuc-el) + E(el-el) + E(nuc-nuc)
    E(ZPE)  - the the zero temperature vibrational energy from the frequency calculation
    E(vib)  - the the finite temperature correction to E(ZPE) due to population
              of excited vibrational states
    E(rot)  - is the rotational thermal energy
    E(trans)- is the translational thermal energy

Summary of contributions to the inner energy U:
Electronic energy                ...   -188.24349606 Eh
Zero point energy                ...      0.01047774 Eh       6.57 kcal/mol
Thermal vibrational correction   ...      0.00013361 Eh       0.08 kcal/mol
Thermal rotational correction    ...      0.00141627 Eh       0.89 kcal/mol
Thermal translational correction ...      0.00141627 Eh       0.89 kcal/mol
-----------------------------------------------------------------------
Total thermal energy                   -188.23005217 Eh


Summary of corrections to the electronic energy:
(perhaps to be used in another calculation)
Total thermal correction                  0.00296616 Eh       1.86 kcal/mol
Non-thermal (ZPE) correction              0.01047774 Eh       6.57 kcal/mol
-----------------------------------------------------------------------
Total correction                          0.01344389 Eh       8.44 kcal/mol


--------
ENTHALPY
--------

The enthalpy is H = U + kB*T
                kB is Boltzmann's constant
Total free energy                 ...   -188.23005217 Eh 
Thermal Enthalpy correction       ...      0.00094421 Eh       0.59 kcal/mol
-----------------------------------------------------------------------
Total Enthalpy                    ...   -188.22910796 Eh

[file orca_tools/Tool-Symmetry/symmain.cpp, line 3070]: Error (ORCA_SYM): TMoleculeSymmetry::CleanUp molecule is linear but not aligned to z axis!

