
                                 *****************
                                 * O   R   C   A *
                                 *****************

           --- An Ab Initio, DFT and Semiempirical electronic structure package ---

                  #######################################################
                  #                        -***-                        #
                  #          Department of theory and spectroscopy      #
                  #               Directorship: Frank Neese             #
                  #        Max Planck Institute fuer Kohlenforschung    #
                  #                Kaiser Wilhelm Platz 1               #
                  #                 D-45470 Muelheim/Ruhr               #
                  #                      Germany                        #
                  #                                                     #
                  #                  All rights reserved                #
                  #                        -***-                        #
                  #######################################################


                         Program Version 4.2.1 -  RELEASE  -


 With contributions from (in alphabetic order):
   Daniel Aravena         : Magnetic Suceptibility
   Michael Atanasov       : Ab Initio Ligand Field Theory (pilot matlab implementation)
   Alexander A. Auer      : GIAO ZORA, VPT2
   Ute Becker             : Parallelization
   Giovanni Bistoni       : ED, misc. LED, open-shell LED, HFLD
   Martin Brehm           : Molecular dynamics
   Dmytro Bykov           : SCF Hessian
   Vijay G. Chilkuri      : MRCI spin determinant printing, contributions to CSF-ICE
   Dipayan Datta          : RHF DLPNO-CCSD density
   Achintya Kumar Dutta   : EOM-CC, STEOM-CC
   Dmitry Ganyushin       : Spin-Orbit,Spin-Spin,Magnetic field MRCI
   Miquel Garcia          : C-PCM Hessian, Gaussian charge scheme
   Yang Guo               : DLPNO-NEVPT2, CIM, IAO-localization
   Andreas Hansen         : Spin unrestricted coupled pair/coupled cluster methods
   Benjamin Helmich-Paris : CASSCF linear response (MC-RPA)
   Lee Huntington         : MR-EOM, pCC
   Robert Izsak           : Overlap fitted RIJCOSX, COSX-SCS-MP3, EOM
   Christian Kollmar      : KDIIS, OOCD, Brueckner-CCSD(T), CCSD density
   Simone Kossmann        : Meta GGA functionals, TD-DFT gradient, OOMP2, MP2 Hessian
   Martin Krupicka        : AUTO-CI
   Lucas Lang             : DCDCAS
   Dagmar Lenk            : GEPOL surface, SMD
   Dimitrios Liakos       : Extrapolation schemes; Compound Job, initial MDCI parallelization
   Dimitrios Manganas     : Further ROCIS development; embedding schemes
   Dimitrios Pantazis     : SARC Basis sets
   Taras Petrenko         : DFT Hessian,TD-DFT gradient, ASA, ECA, R-Raman, ABS, FL, XAS/XES, NRVS
   Peter Pinski           : DLPNO-MP2, DLPNO-MP2 Gradient
   Christoph Reimann      : Effective Core Potentials
   Marius Retegan         : Local ZFS, SOC
   Christoph Riplinger    : Optimizer, TS searches, QM/MM, DLPNO-CCSD(T), (RO)-DLPNO pert. Triples
   Tobias Risthaus        : Range-separated hybrids, TD-DFT gradient, RPA, STAB
   Michael Roemelt        : Original ROCIS implementation
   Masaaki Saitow         : Open-shell DLPNO-CCSD energy and density
   Barbara Sandhoefer     : DKH picture change effects
   Avijit Sen             : IP-ROCIS
   Kantharuban Sivalingam : CASSCF convergence, NEVPT2, FIC-MRCI
   Bernardo de Souza      : ESD, SOC TD-DFT
   Georgi Stoychev        : AutoAux, RI-MP2 NMR
   Willem Van den Heuvel  : Paramagnetic NMR
   Boris Wezisla          : Elementary symmetry handling
   Frank Wennmohs         : Technical directorship


 We gratefully acknowledge several colleagues who have allowed us to
 interface, adapt or use parts of their codes:
   Stefan Grimme, W. Hujo, H. Kruse,             : VdW corrections, initial TS optimization,
                  C. Bannwarth                     DFT functionals, gCP, sTDA/sTD-DF
   Ed Valeev, F. Pavosevic, A. Kumar             : LibInt (2-el integral package), F12 methods
   Garnet Chan, S. Sharma, J. Yang, R. Olivares  : DMRG
   Ulf Ekstrom                                   : XCFun DFT Library
   Mihaly Kallay                                 : mrcc  (arbitrary order and MRCC methods)
   Andreas Klamt, Michael Diedenhofen            : otool_cosmo (COSMO solvation model)
   Jiri Pittner, Ondrej Demel                    : Mk-CCSD
   Frank Weinhold                                : gennbo (NPA and NBO analysis)
   Christopher J. Cramer and Donald G. Truhlar   : smd solvation model
   Lars Goerigk                                  : TD-DFT with DH, B97 family of functionals
   V. Asgeirsson, H. Jonsson                     : NEB implementation
   FAccTs GmbH                                   : IRC, NEB, NEB-TS, Multilevel, MM, QM/MM, CI optimization
   S Lehtola, MJT Oliveira, MAL Marques          : LibXC Library


 Your calculation uses the libint2 library for the computation of 2-el integrals
 For citations please refer to: http://libint.valeyev.net

 Your ORCA version has been built with support for libXC version: 4.2.3
 For citations please refer to: https://tddft.org/programs/libxc/

 This ORCA versions uses:
   CBLAS   interface :  Fast vector & matrix operations
   LAPACKE interface :  Fast linear algebra routines
   SCALAPACK package :  Parallel linear algebra routines


----- Orbital basis set information -----
Your calculation utilizes the basis: def2-SVP
   F. Weigend and R. Ahlrichs, Phys. Chem. Chem. Phys. 7, 3297 (2005).

================================================================================
                                        WARNINGS
                       Please study these warnings very carefully!
================================================================================


INFO   : the flag for use of LIBINT has been found!

================================================================================
                                       INPUT FILE
================================================================================
NAME = cp_sp_orca.inp
|  1> ! PBE0 Freq def2-SVP
|  2> %geom MaxIter 100 end
|  3> %output 
|  4> xyzfile=True 
|  5> end 
|  6> %scf 
|  7> maxiter 250 
|  8> end
|  9> %output
| 10> Print[P_Hirshfeld] = 1
| 11> end
| 12> % maxcore
| 13> 4000
| 14> %pal nprocs 2
| 15> end
| 16> *xyz -1 1
| 17> C   -1.01583383   0.64197652  -0.00853164 
| 18> C   -0.92452535  -0.76752235  -0.01194693 
| 19> C    0.44421078  -1.11645945   0.00123217 
| 20> C    1.19858177   0.07757792   0.01242724 
| 21> C    0.29665009   1.16428792   0.00651068 
| 22> H   -1.94182058   1.22786361  -0.01641076 
| 23> H   -1.76722302  -1.46789373  -0.02299342 
| 24> H    0.85011220  -2.13425958   0.00238845 
| 25> H    2.29236655   0.14826741   0.02450817 
| 26> H    0.56738139   2.22616174   0.01271604 
| 27> *
| 28> 
| 29>                          ****END OF INPUT****
================================================================================

                       ****************************
                       * Single Point Calculation *
                       ****************************

---------------------------------
CARTESIAN COORDINATES (ANGSTROEM)
---------------------------------
  C     -1.015834    0.641977   -0.008532
  C     -0.924525   -0.767522   -0.011947
  C      0.444211   -1.116459    0.001232
  C      1.198582    0.077578    0.012427
  C      0.296650    1.164288    0.006511
  H     -1.941821    1.227864   -0.016411
  H     -1.767223   -1.467894   -0.022993
  H      0.850112   -2.134260    0.002388
  H      2.292367    0.148267    0.024508
  H      0.567381    2.226162    0.012716

----------------------------
CARTESIAN COORDINATES (A.U.)
----------------------------
  NO LB      ZA    FRAG     MASS         X           Y           Z
   0 C     6.0000    0    12.011   -1.919648    1.213160   -0.016122
   1 C     6.0000    0    12.011   -1.747100   -1.450407   -0.022576
   2 C     6.0000    0    12.011    0.839437   -2.109803    0.002328
   3 C     6.0000    0    12.011    2.264991    0.146601    0.023484
   4 C     6.0000    0    12.011    0.560587    2.200185    0.012303
   5 H     1.0000    0     1.008   -3.669509    2.320326   -0.031012
   6 H     1.0000    0     1.008   -3.339568   -2.773917   -0.043451
   7 H     1.0000    0     1.008    1.606479   -4.033166    0.004514
   8 H     1.0000    0     1.008    4.331945    0.280185    0.046314
   9 H     1.0000    0     1.008    1.072195    4.206836    0.024030

--------------------------------
INTERNAL COORDINATES (ANGSTROEM)
--------------------------------
 C      0   0   0     0.000000000000     0.00000000     0.00000000
 C      1   0   0     1.412457421396     0.00000000     0.00000000
 C      2   1   0     1.412575442941   108.00625407     0.00000000
 C      3   2   1     1.412418550254   107.98501976     0.00000000
 C      4   3   2     1.412251530419   108.02180235     0.00000000
 H      1   2   3     1.095799810155   126.02626927   179.99697181
 H      2   1   3     1.095801742054   126.02318533   180.00628134
 H      3   2   1     1.095752893845   126.04309595   179.99479245
 H      4   3   2     1.096133248207   125.98408924   179.96395529
 H      5   4   3     1.095860371076   126.00259345   179.98020151

---------------------------
INTERNAL COORDINATES (A.U.)
---------------------------
 C      0   0   0     0.000000000000     0.00000000     0.00000000
 C      1   0   0     2.669157702263     0.00000000     0.00000000
 C      2   1   0     2.669380730661   108.00625407     0.00000000
 C      3   2   1     2.669084246451   107.98501976     0.00000000
 C      4   3   2     2.668768624702   108.02180235     0.00000000
 H      1   2   3     2.070761538796   126.02626927   179.99697181
 H      2   1   3     2.070765189555   126.02318533   180.00628134
 H      3   2   1     2.070672879819   126.04309595   179.99479245
 H      4   3   2     2.071391645398   125.98408924   179.96395529
 H      5   4   3     2.070875982350   126.00259345   179.98020151

---------------------
BASIS SET INFORMATION
---------------------
There are 2 groups of distinct atoms

 Group   1 Type C   : 7s4p1d contracted to 3s2p1d pattern {511/31/1}
 Group   2 Type H   : 4s1p contracted to 2s1p pattern {31/1}

Atom   0C    basis set group =>   1
Atom   1C    basis set group =>   1
Atom   2C    basis set group =>   1
Atom   3C    basis set group =>   1
Atom   4C    basis set group =>   1
Atom   5H    basis set group =>   2
Atom   6H    basis set group =>   2
Atom   7H    basis set group =>   2
Atom   8H    basis set group =>   2
Atom   9H    basis set group =>   2
[1598604749.663653] [aleph:21917:0]            sys.c:618  UCX  ERROR shmget(size=2097152 flags=0xfb0) for mm_recv_desc failed: Operation not permitted, please check shared memory limits by 'ipcs -l'
[1598604749.676608] [aleph:21916:0]            sys.c:618  UCX  ERROR shmget(size=2097152 flags=0xfb0) for mm_recv_desc failed: Operation not permitted, please check shared memory limits by 'ipcs -l'
[1598604749.685229] [aleph:21916:0]            sys.c:618  UCX  ERROR shmget(size=2097152 flags=0xb80) for ucp_am_bufs failed: Operation not permitted, please check shared memory limits by 'ipcs -l'


           ************************************************************
           *        Program running with 2 parallel MPI-processes     *
           *              working on a common directory               *
           ************************************************************
------------------------------------------------------------------------------
                           ORCA GTO INTEGRAL CALCULATION
------------------------------------------------------------------------------

                         BASIS SET STATISTICS AND STARTUP INFO

 # of primitive gaussian shells          ...   85
 # of primitive gaussian functions       ...  155
 # of contracted shells                  ...   45
 # of contracted basis functions         ...   95
 Highest angular momentum                ...    2
 Maximum contraction depth               ...    5
 Integral package used                   ... LIBINT
 Integral threshhold            Thresh   ...  1.000e-10
 Primitive cut-off              TCut     ...  1.000e-11


------------------------------ INTEGRAL EVALUATION ----------------------------


 * One electron integrals 
 Pre-screening matrix                    ... done
 Shell pair data                         ... done (   0.000 sec)

[1598604750.953802] [aleph:21938:0]            sys.c:618  UCX  ERROR shmget(size=2097152 flags=0xfb0) for mm_recv_desc failed: Operation not permitted, please check shared memory limits by 'ipcs -l'
[1598604750.966918] [aleph:21939:0]            sys.c:618  UCX  ERROR shmget(size=2097152 flags=0xfb0) for mm_recv_desc failed: Operation not permitted, please check shared memory limits by 'ipcs -l'
[1598604750.976357] [aleph:21938:0]            sys.c:618  UCX  ERROR shmget(size=2097152 flags=0xb80) for ucp_am_bufs failed: Operation not permitted, please check shared memory limits by 'ipcs -l'


           ************************************************************
           *        Program running with 2 parallel MPI-processes     *
           *              working on a common directory               *
           ************************************************************
-------------------------------------------------------------------------------
                                 ORCA SCF
-------------------------------------------------------------------------------

------------
SCF SETTINGS
------------
Hamiltonian:
 Density Functional     Method          .... DFT(GTOs)
 Exchange Functional    Exchange        .... PBE
   PBE kappa parameter   XKappa         ....  0.804000
   PBE mue parameter    XMuePBE         ....  0.219520
 Correlation Functional Correlation     .... PBE
   PBE beta parameter  CBetaPBE         ....  0.066725
 LDA part of GGA corr.  LDAOpt          .... PW91-LDA
 Gradients option       PostSCFGGA      .... off
 Hybrid DFT is turned on
   Fraction HF Exchange ScalHFX         ....  0.250000
   Scaling of DF-GGA-X  ScalDFX         ....  0.750000
   Scaling of DF-GGA-C  ScalDFC         ....  1.000000
   Scaling of DF-LDA-C  ScalLDAC        ....  1.000000
   Perturbative correction              ....  0.000000
   Density functional embedding theory  .... OFF
   NL short-range parameter             ....  6.900000


General Settings:
 Integral files         IntName         .... cp_sp_orca
 Hartree-Fock type      HFTyp           .... RHF
 Total Charge           Charge          ....   -1
 Multiplicity           Mult            ....    1
 Number of Electrons    NEL             ....   36
 Basis Dimension        Dim             ....   95
 Nuclear Repulsion      ENuc            ....    148.8551365402 Eh

Convergence Acceleration:
 DIIS                   CNVDIIS         .... on
   Start iteration      DIISMaxIt       ....    12
   Startup error        DIISStart       ....  0.200000
   # of expansion vecs  DIISMaxEq       ....     5
   Bias factor          DIISBfac        ....   1.050
   Max. coefficient     DIISMaxC        ....  10.000
 Newton-Raphson         CNVNR           .... off
 SOSCF                  CNVSOSCF        .... on
   Start iteration      SOSCFMaxIt      ....   150
   Startup grad/error   SOSCFStart      ....  0.003300
 Level Shifting         CNVShift        .... on
   Level shift para.    LevelShift      ....    0.2500
   Turn off err/grad.   ShiftErr        ....    0.0010
 Zerner damping         CNVZerner       .... off
 Static damping         CNVDamp         .... on
   Fraction old density DampFac         ....    0.7000
   Max. Damping (<1)    DampMax         ....    0.9800
   Min. Damping (>=0)   DampMin         ....    0.0000
   Turn off err/grad.   DampErr         ....    0.1000
 Fernandez-Rico         CNVRico         .... off

SCF Procedure:
 Maximum # iterations   MaxIter         ....   250
 SCF integral mode      SCFMode         .... Direct
   Integral package                     .... LIBINT
 Reset frequency        DirectResetFreq ....    20
 Integral Threshold     Thresh          ....  1.000e-10 Eh
 Primitive CutOff       TCut            ....  1.000e-11 Eh

Convergence Tolerance:
 Convergence Check Mode ConvCheckMode   .... Total+1el-Energy
 Convergence forced     ConvForced      .... 0
 Energy Change          TolE            ....  1.000e-06 Eh
 1-El. energy change                    ....  1.000e-03 Eh
 Orbital Gradient       TolG            ....  5.000e-05
 Orbital Rotation angle TolX            ....  5.000e-05
 DIIS Error             TolErr          ....  1.000e-06


Diagonalization of the overlap matrix:
Smallest eigenvalue                        ... 1.001e-03
Time for diagonalization                   ...    0.003 sec
Threshold for overlap eigenvalues          ... 1.000e-08
Number of eigenvalues below threshold      ... 0
Time for construction of square roots      ...    0.001 sec
Total time needed                          ...    0.004 sec

-------------------
DFT GRID GENERATION
-------------------

General Integration Accuracy     IntAcc      ...  4.340
Radial Grid Type                 RadialGrid  ... Gauss-Chebyshev
Angular Grid (max. acc.)         AngularGrid ... Lebedev-110
Angular grid pruning method      GridPruning ... 3 (G Style)
Weight generation scheme         WeightScheme... Becke
Basis function cutoff            BFCut       ...    1.0000e-10
Integration weight cutoff        WCut        ...    1.0000e-14
Grids for H and He will be reduced by one unit

# of grid points (after initial pruning)     ...  12250 (   0.0 sec)
# of grid points (after weights+screening)   ...  11583 (   0.0 sec)
nearest neighbour list constructed           ...    0.0 sec
Grid point re-assignment to atoms done       ...    0.0 sec
Grid point division into batches done        ...    0.0 sec
Reduced shell lists constructed in    0.1 sec

Total number of grid points                  ...    11583
Total number of batches                      ...      185
Average number of points per batch           ...       62
Average number of grid points per atom       ...     1158
Average number of shells per batch           ...    40.04 (88.98%)
Average number of basis functions per batch  ...    85.96 (90.48%)
Average number of large shells per batch     ...    35.62 (88.95%)
Average number of large basis fcns per batch ...    77.74 (90.45%)
Maximum spatial batch extension              ...  15.30, 17.06, 33.38 au
Average spatial batch extension              ...   1.30,  1.35,  2.71 au

Time for grid setup =    0.077 sec

------------------------------
INITIAL GUESS: MODEL POTENTIAL
------------------------------
Loading Hartree-Fock densities                     ... done
Calculating cut-offs                               ... done
Setting up the integral package                    ... done
Initializing the effective Hamiltonian             ... done
Starting the Coulomb interaction                   ... done (   0.0 sec)
Reading the grid                                   ... done
Mapping shells                                     ... done
Starting the XC term evaluation                    ... done (   0.0 sec)
  promolecular density results
     # of electrons  =     35.001036576
     EX              =    -26.987814916
     EC              =     -1.132927483
     EX+EC           =    -28.120742400
Transforming the Hamiltonian                       ... done (   0.0 sec)
Diagonalizing the Hamiltonian                      ... done (   0.0 sec)
Back transforming the eigenvectors                 ... done (   0.0 sec)
Now organizing SCF variables                       ... done
                      ------------------
                      INITIAL GUESS DONE (   0.2 sec)
                      ------------------
--------------
SCF ITERATIONS
--------------
ITER       Energy         Delta-E        Max-DP      RMS-DP      [F,P]     Damp
               ***  Starting incremental Fock matrix formation  ***
  0   -192.8959873483   0.000000000000 0.06474593  0.00408444  0.1847696 0.7000
  1   -193.0102177479  -0.114230399531 0.04138385  0.00313522  0.0933316 0.7000
                               ***Turning on DIIS***
  2   -193.0576316702  -0.047413922369 0.07549423  0.00529979  0.0368868 0.0000
  3   -193.1236432202  -0.066011549952 0.02723208  0.00218578  0.0567364 0.0000
  4   -193.1432394383  -0.019596218091 0.01154187  0.00070890  0.0119815 0.0000
                      *** Initiating the SOSCF procedure ***
                           *** Shutting down DIIS ***
                      *** Re-Reading the Fockian *** 
                      *** Removing any level shift *** 
ITER      Energy       Delta-E        Grad      Rot      Max-DP    RMS-DP
  5   -193.14430262  -0.0010631805  0.001482  0.001482  0.004118  0.000248
               *** Restarting incremental Fock matrix formation ***
  6   -193.14435627  -0.0000536522  0.000623  0.001323  0.002533  0.000150
  7   -193.14435799  -0.0000017140  0.000439  0.000291  0.000460  0.000027
  8   -193.14436053  -0.0000025450  0.000049  0.000058  0.000161  0.000010
                 **** Energy Check signals convergence ****
              ***Rediagonalizing the Fockian in SOSCF/NRSCF***

               *****************************************************
               *                     SUCCESS                       *
               *           SCF CONVERGED AFTER   9 CYCLES          *
               *****************************************************

Setting up the final grid:

General Integration Accuracy     IntAcc      ...  4.670
Radial Grid Type                 RadialGrid  ... Gauss-Chebyshev
Angular Grid (max. acc.)         AngularGrid ... Lebedev-302
Angular grid pruning method      GridPruning ... 3 (G Style)
Weight generation scheme         WeightScheme... Becke
Basis function cutoff            BFCut       ...    1.0000e-10
Integration weight cutoff        WCut        ...    1.0000e-14
Grids for H and He will be reduced by one unit

# of grid points (after initial pruning)     ...  48030 (   0.0 sec)
# of grid points (after weights+screening)   ...  44992 (   0.0 sec)
nearest neighbour list constructed           ...    0.0 sec
Grid point re-assignment to atoms done       ...    0.0 sec
Grid point division into batches done        ...    0.2 sec
Reduced shell lists constructed in    0.3 sec

Total number of grid points                  ...    44992
Total number of batches                      ...      706
Average number of points per batch           ...       63
Average number of grid points per atom       ...     4499
Average number of shells per batch           ...    37.86 (84.13%)
Average number of basis functions per batch  ...    80.90 (85.16%)
Average number of large shells per batch     ...    32.93 (86.97%)
Average number of large basis fcns per batch ...    70.92 (87.66%)
Maximum spatial batch extension              ...  15.87, 15.13, 23.20 au
Average spatial batch extension              ...   0.92,  0.93,  1.35 au

Final grid set up in    0.3 sec
Final integration                            ... done (   0.2 sec)
Change in XC energy                          ...    -0.000367715
Integrated number of electrons               ...    35.999985668
Previous integrated no of electrons          ...    36.003332469

----------------
TOTAL SCF ENERGY
----------------

Total Energy       :         -193.14472828 Eh           -5255.73525 eV

Components:
Nuclear Repulsion  :          148.85513654 Eh            4050.55419 eV
Electronic Energy  :         -341.99986482 Eh           -9306.28944 eV
One Electron Energy:         -561.87184505 Eh          -15289.31020 eV
Two Electron Energy:          219.87198024 Eh            5983.02075 eV

Virial components:
Potential Energy   :         -384.19297378 Eh          -10454.42231 eV
Kinetic Energy     :          191.04824551 Eh            5198.68706 eV
Virial Ratio       :            2.01097358


DFT components:
N(Alpha)           :       17.999992834050 electrons
N(Beta)            :       17.999992834050 electrons
N(Total)           :       35.999985668101 electrons
E(X)               :      -20.788861710692 Eh       
E(C)               :       -1.187001285109 Eh       
E(XC)              :      -21.975862995802 Eh       
DFET-embed. en.    :        0.000000000000 Eh       

---------------
SCF CONVERGENCE
---------------

  Last Energy change         ...   -3.2260e-08  Tolerance :   1.0000e-06
  Last MAX-Density change    ...    3.4119e-05  Tolerance :   1.0000e-05
  Last RMS-Density change    ...    1.9957e-06  Tolerance :   1.0000e-06
  Last Orbital Gradient      ...    1.6211e-05  Tolerance :   5.0000e-05
  Last Orbital Rotation      ...    1.3357e-05  Tolerance :   5.0000e-05

             **** THE GBW FILE WAS UPDATED (cp_sp_orca.gbw) ****
             **** DENSITY FILE WAS UPDATED (cp_sp_orca.scfp) ****
             **** ENERGY FILE WAS UPDATED (cp_sp_orca.en.tmp) ****
             **** THE GBW FILE WAS UPDATED (cp_sp_orca.gbw) ****
             **** DENSITY FILE WAS UPDATED (cp_sp_orca.scfp) ****
----------------
ORBITAL ENERGIES
----------------

  NO   OCC          E(Eh)            E(eV) 
   0   2.0000      -9.990788      -271.8632 
   1   2.0000      -9.990555      -271.8568 
   2   2.0000      -9.990525      -271.8560 
   3   2.0000      -9.990176      -271.8465 
   4   2.0000      -9.990112      -271.8448 
   5   2.0000      -0.635052       -17.2807 
   6   2.0000      -0.471103       -12.8194 
   7   2.0000      -0.471046       -12.8178 
   8   2.0000      -0.316650        -8.6165 
   9   2.0000      -0.316586        -8.6147 
  10   2.0000      -0.304083        -8.2745 
  11   2.0000      -0.167459        -4.5568 
  12   2.0000      -0.167416        -4.5556 
  13   2.0000      -0.150590        -4.0978 
  14   2.0000      -0.150527        -4.0961 
  15   2.0000      -0.140922        -3.8347 
  16   2.0000       0.015841         0.4311 
  17   2.0000       0.015855         0.4314 
  18   0.0000       0.262219         7.1353 
  19   0.0000       0.301992         8.2176 
  20   0.0000       0.302471         8.2307 
  21   0.0000       0.303115         8.2482 
  22   0.0000       0.303798         8.2668 
  23   0.0000       0.319433         8.6922 
  24   0.0000       0.319878         8.7043 
  25   0.0000       0.469363        12.7720 
  26   0.0000       0.469478        12.7752 
  27   0.0000       0.556865        15.1531 
  28   0.0000       0.557055        15.1582 
  29   0.0000       0.576268        15.6811 
  30   0.0000       0.660204        17.9651 
  31   0.0000       0.661379        17.9970 
  32   0.0000       0.661508        18.0005 
  33   0.0000       0.712844        19.3975 
  34   0.0000       0.714001        19.4289 
  35   0.0000       0.714665        19.4470 
  36   0.0000       0.736209        20.0333 
  37   0.0000       0.782118        21.2825 
  38   0.0000       0.782214        21.2851 
  39   0.0000       0.854128        23.2420 
  40   0.0000       0.854612        23.2552 
  41   0.0000       0.854847        23.2616 
  42   0.0000       0.856190        23.2981 
  43   0.0000       0.929857        25.3027 
  44   0.0000       0.931539        25.3485 
  45   0.0000       0.961568        26.1656 
  46   0.0000       0.961945        26.1759 
  47   0.0000       0.992381        27.0041 
  48   0.0000       1.034380        28.1469 
  49   0.0000       1.034811        28.1586 
  50   0.0000       1.065310        28.9886 
  51   0.0000       1.268682        34.5226 
  52   0.0000       1.269206        34.5369 
  53   0.0000       1.374927        37.4137 
  54   0.0000       1.479361        40.2555 
  55   0.0000       1.480420        40.2843 
  56   0.0000       1.503363        40.9086 
  57   0.0000       1.503390        40.9093 
  58   0.0000       1.545578        42.0573 
  59   0.0000       1.545789        42.0631 
  60   0.0000       1.772412        48.2298 
  61   0.0000       1.866904        50.8010 
  62   0.0000       1.867126        50.8071 
  63   0.0000       1.916047        52.1383 
  64   0.0000       1.916282        52.1447 
  65   0.0000       1.959558        53.3223 
  66   0.0000       1.959767        53.3280 
  67   0.0000       2.052609        55.8543 
  68   0.0000       2.083929        56.7066 
  69   0.0000       2.083956        56.7073 
  70   0.0000       2.133951        58.0678 
  71   0.0000       2.195962        59.7552 
  72   0.0000       2.196020        59.7567 
  73   0.0000       2.261777        61.5461 
  74   0.0000       2.262140        61.5560 
  75   0.0000       2.296909        62.5021 
  76   0.0000       2.420274        65.8590 
  77   0.0000       2.420730        65.8714 
  78   0.0000       2.462266        67.0017 
  79   0.0000       2.462305        67.0027 
  80   0.0000       2.489122        67.7324 
  81   0.0000       2.489317        67.7378 
  82   0.0000       2.766048        75.2680 
  83   0.0000       2.776617        75.5556 
  84   0.0000       2.776891        75.5630 
  85   0.0000       2.872347        78.1605 
  86   0.0000       2.896489        78.8175 
  87   0.0000       2.896795        78.8258 
  88   0.0000       2.980404        81.1009 
  89   0.0000       2.980766        81.1108 
  90   0.0000       3.068372        83.4946 
  91   0.0000       3.069247        83.5185 
  92   0.0000       3.421079        93.0923 
  93   0.0000       3.685882       100.2979 
  94   0.0000       3.686231       100.3074 

                    ********************************
                    * MULLIKEN POPULATION ANALYSIS *
                    ********************************

-----------------------
MULLIKEN ATOMIC CHARGES
-----------------------
   0 C :   -0.101297
   1 C :   -0.104449
   2 C :   -0.099893
   3 C :   -0.110012
   4 C :   -0.105151
   5 H :   -0.096680
   6 H :   -0.095371
   7 H :   -0.097491
   8 H :   -0.093543
   9 H :   -0.096113
Sum of atomic charges:   -1.0000000

--------------------------------
MULLIKEN REDUCED ORBITAL CHARGES
--------------------------------
  0 C s       :     3.147027  s :     3.147027
      pz      :     1.181100  p :     2.918451
      px      :     0.829318
      py      :     0.908033
      dz2     :     0.002869  d :     0.035818
      dxz     :     0.004307
      dyz     :     0.006869
      dx2y2   :     0.010428
      dxy     :     0.011345
  1 C s       :     3.147636  s :     3.147636
      pz      :     1.181715  p :     2.920984
      px      :     0.852533
      py      :     0.886737
      dz2     :     0.002872  d :     0.035829
      dxz     :     0.005037
      dyz     :     0.006139
      dx2y2   :     0.010214
      dxy     :     0.011567
  2 C s       :     3.148694  s :     3.148694
      pz      :     1.180771  p :     2.915416
      px      :     0.934595
      py      :     0.800050
      dz2     :     0.002867  d :     0.035784
      dxz     :     0.007749
      dyz     :     0.003422
      dx2y2   :     0.010905
      dxy     :     0.010841
  3 C s       :     3.149221  s :     3.149221
      pz      :     1.182569  p :     2.924940
      px      :     0.779146
      py      :     0.963224
      dz2     :     0.002870  d :     0.035852
      dxz     :     0.002627
      dyz     :     0.008552
      dx2y2   :     0.011599
      dxy     :     0.010203
  4 C s       :     3.149388  s :     3.149388
      pz      :     1.181715  p :     2.919935
      px      :     0.950730
      py      :     0.787489
      dz2     :     0.002870  d :     0.035829
      dxz     :     0.008205
      dyz     :     0.002973
      dx2y2   :     0.011283
      dxy     :     0.010497
  5 H s       :     1.072729  s :     1.072729
      pz      :     0.007213  p :     0.023951
      px      :     0.010441
      py      :     0.006297
  6 H s       :     1.071440  s :     1.071440
      pz      :     0.007212  p :     0.023931
      px      :     0.009228
      py      :     0.007490
  7 H s       :     1.073511  s :     1.073511
      pz      :     0.007224  p :     0.023980
      px      :     0.004860
      py      :     0.011896
  8 H s       :     1.069621  s :     1.069621
      pz      :     0.007212  p :     0.023922
      px      :     0.013152
      py      :     0.003558
  9 H s       :     1.072168  s :     1.072168
      pz      :     0.007215  p :     0.023945
      px      :     0.004105
      py      :     0.012625


                     *******************************
                     * LOEWDIN POPULATION ANALYSIS *
                     *******************************

----------------------
LOEWDIN ATOMIC CHARGES
----------------------
   0 C :   -0.176476
   1 C :   -0.177042
   2 C :   -0.176046
   3 C :   -0.177961
   4 C :   -0.176978
   5 H :   -0.023194
   6 H :   -0.022910
   7 H :   -0.023467
   8 H :   -0.022746
   9 H :   -0.023179

-------------------------------
LOEWDIN REDUCED ORBITAL CHARGES
-------------------------------
  0 C s       :     2.865882  s :     2.865882
      pz      :     1.155810  p :     3.218896
      px      :     1.019503
      py      :     1.043583
      dz2     :     0.006142  d :     0.091698
      dxz     :     0.008503
      dyz     :     0.014843
      dx2y2   :     0.031387
      dxy     :     0.030824
  1 C s       :     2.865913  s :     2.865913
      pz      :     1.156178  p :     3.219450
      px      :     1.026411
      py      :     1.036861
      dz2     :     0.006140  d :     0.091679
      dxz     :     0.010305
      dyz     :     0.013027
      dx2y2   :     0.031529
      dxy     :     0.030677
  2 C s       :     2.865997  s :     2.865997
      pz      :     1.155574  p :     3.218314
      px      :     1.051662
      py      :     1.011078
      dz2     :     0.006146  d :     0.091735
      dxz     :     0.017036
      dyz     :     0.006320
      dx2y2   :     0.031077
      dxy     :     0.031155
  3 C s       :     2.865981  s :     2.865981
      pz      :     1.156657  p :     3.220262
      px      :     1.004071
      py      :     1.059535
      dz2     :     0.006141  d :     0.091719
      dxz     :     0.004352
      dyz     :     0.019015
      dx2y2   :     0.030655
      dxy     :     0.031556
  4 C s       :     2.865937  s :     2.865937
      pz      :     1.156159  p :     3.219310
      px      :     1.056050
      py      :     1.007101
      dz2     :     0.006143  d :     0.091731
      dxz     :     0.018159
      dyz     :     0.005203
      dx2y2   :     0.030876
      dxy     :     0.031349
  5 H s       :     0.954705  s :     0.954705
      pz      :     0.020548  p :     0.068489
      px      :     0.029046
      py      :     0.018896
  6 H s       :     0.954385  s :     0.954385
      pz      :     0.020565  p :     0.068525
      px      :     0.026152
      py      :     0.021807
  7 H s       :     0.955000  s :     0.955000
      pz      :     0.020548  p :     0.068467
      px      :     0.015369
      py      :     0.032550
  8 H s       :     0.954239  s :     0.954239
      pz      :     0.020574  p :     0.068507
      px      :     0.035694
      py      :     0.012239
  9 H s       :     0.954691  s :     0.954691
      pz      :     0.020563  p :     0.068488
      px      :     0.013573
      py      :     0.034352


                      *****************************
                      * MAYER POPULATION ANALYSIS *
                      *****************************

  NA   - Mulliken gross atomic population
  ZA   - Total nuclear charge
  QA   - Mulliken gross atomic charge
  VA   - Mayer's total valence
  BVA  - Mayer's bonded valence
  FA   - Mayer's free valence

  ATOM       NA         ZA         QA         VA         BVA        FA
  0 C      6.1013     6.0000    -0.1013     3.8069     3.8069     0.0000
  1 C      6.1044     6.0000    -0.1044     3.8066     3.8066     0.0000
  2 C      6.0999     6.0000    -0.0999     3.8045     3.8045     0.0000
  3 C      6.1100     6.0000    -0.1100     3.8053     3.8053     0.0000
  4 C      6.1052     6.0000    -0.1052     3.8060     3.8060    -0.0000
  5 H      1.0967     1.0000    -0.0967     0.9690     0.9690    -0.0000
  6 H      1.0954     1.0000    -0.0954     0.9694     0.9694     0.0000
  7 H      1.0975     1.0000    -0.0975     0.9688     0.9688     0.0000
  8 H      1.0935     1.0000    -0.0935     0.9699     0.9699     0.0000
  9 H      1.0961     1.0000    -0.0961     0.9693     0.9693     0.0000

  Mayer bond orders larger than 0.100000
B(  0-C ,  1-C ) :   1.3825 B(  0-C ,  4-C ) :   1.3811 B(  0-C ,  5-H ) :   0.9819 
B(  1-C ,  2-C ) :   1.3808 B(  1-C ,  6-H ) :   0.9820 B(  2-C ,  3-C ) :   1.3802 
B(  2-C ,  7-H ) :   0.9824 B(  3-C ,  4-C ) :   1.3800 B(  3-C ,  8-H ) :   0.9834 
B(  4-C ,  9-H ) :   0.9830 


------------------
HIRSHFELD ANALYSIS
------------------

Total integrated alpha density =     18.001666235
Total integrated beta density  =     18.001666235

  ATOM     CHARGE      SPIN    
   0 C   -0.172744    0.000000
   1 C   -0.172863    0.000000
   2 C   -0.171899    0.000000
   3 C   -0.173465    0.000000
   4 C   -0.173018    0.000000
   5 H   -0.027532    0.000000
   6 H   -0.027163    0.000000
   7 H   -0.027751    0.000000
   8 H   -0.028683    0.000000
   9 H   -0.028215    0.000000

  TOTAL  -1.003332    0.000000

-------
TIMINGS
-------

Total SCF time: 0 days 0 hours 0 min 5 sec 

Total time                  ....       5.551 sec
Sum of individual times     ....       5.326 sec  ( 96.0%)

Fock matrix formation       ....       4.684 sec  ( 84.4%)
  XC integration            ....       0.875 sec  ( 18.7% of F)
    Basis function eval.    ....       0.345 sec  ( 39.5% of XC)
    Density eval.           ....       0.165 sec  ( 18.9% of XC)
    XC-Functional eval.     ....       0.093 sec  ( 10.6% of XC)
    XC-Potential eval.      ....       0.240 sec  ( 27.4% of XC)
Diagonalization             ....       0.010 sec  (  0.2%)
Density matrix formation    ....       0.001 sec  (  0.0%)
Population analysis         ....       0.064 sec  (  1.2%)
Initial guess               ....       0.169 sec  (  3.1%)
Orbital Transformation      ....       0.000 sec  (  0.0%)
Orbital Orthonormalization  ....       0.000 sec  (  0.0%)
DIIS solution               ....       0.003 sec  (  0.1%)
SOSCF solution              ....       0.004 sec  (  0.1%)
Grid generation             ....       0.390 sec  (  7.0%)

-------------------------   --------------------
FINAL SINGLE POINT ENERGY      -193.144728277427
-------------------------   --------------------


                            ***************************************
                            *     ORCA property calculations      *
                            ***************************************

                                    ---------------------
                                    Active property flags
                                    ---------------------
   (+) Dipole Moment


------------------------------------------------------------------------------
                       ORCA ELECTRIC PROPERTIES CALCULATION
------------------------------------------------------------------------------

Dipole Moment Calculation                       ... on
Quadrupole Moment Calculation                   ... off
Polarizability Calculation                      ... off
GBWName                                         ... cp_sp_orca.gbw
Electron density file                           ... cp_sp_orca.scfp
The origin for moment calculation is the CENTER OF MASS  = (-0.000296, -0.000045 -0.000101)

-------------
DIPOLE MOMENT
-------------
                                X             Y             Z
Electronic contribution:     -0.00285      -0.00104      -0.00015
Nuclear contribution   :      0.00150       0.00024       0.00045
                        -----------------------------------------
Total Dipole Moment    :     -0.00135      -0.00080       0.00030
                        -----------------------------------------
Magnitude (a.u.)       :      0.00160
Magnitude (Debye)      :      0.00407



--------------------
Rotational spectrum 
--------------------
 
Rotational constants in cm-1:     0.297590     0.297561     0.148788 
Rotational constants in MHz :  8921.509242  8920.644436  4460.538460 

 Dipole components along the rotational axes: 
x,y,z [a.u.] :     0.000447    -0.001504     0.000314 
x,y,z [Debye]:     0.001137    -0.003824     0.000797 

 
[1598604757.660234] [aleph:21958:0]            sys.c:618  UCX  ERROR shmget(size=2097152 flags=0xfb0) for mm_recv_desc failed: Operation not permitted, please check shared memory limits by 'ipcs -l'
[1598604757.662786] [aleph:21959:0]            sys.c:618  UCX  ERROR shmget(size=2097152 flags=0xfb0) for mm_recv_desc failed: Operation not permitted, please check shared memory limits by 'ipcs -l'
[1598604757.671912] [aleph:21958:0]            sys.c:618  UCX  ERROR shmget(size=2097152 flags=0xb80) for ucp_am_bufs failed: Operation not permitted, please check shared memory limits by 'ipcs -l'


           ************************************************************
           *        Program running with 2 parallel MPI-processes     *
           *              working on a common directory               *
           ************************************************************

-------------------------------------------------------------------------------
                               ORCA SCF HESSIAN
-------------------------------------------------------------------------------

Hessian of the Kohn-Sham DFT energy:
Kohn-Sham wavefunction type                      ... RKS
Hartree-Fock exchange scaling                    ...    0.250
Number of operators                              ...    1
Number of atoms                                  ...   10
Basis set dimensions                             ...   95
Integral neglect threshold                       ... 1.0e-10
Integral primitive cutoff                        ... 1.0e-11

Setting up DFT Hessian calculations              ... 
Electron density on the grid                     ... found on disk
Electron density on the final grid               ... found on disk
Building xc-kernel on the grid                   ... done   (      0.0 sec)
Building xc-kernel on the final grid             ... done   (      0.0 sec)
                                                     done   (      0.1 sec)

Nuclear repulsion Hessian                        ... done   (      0.0 sec)

----------------------------------------------
Forming right-hand sides of CP-SCF equations     ...
----------------------------------------------
One electron integral derivatives                ... done   (      0.1 sec)
Transforming the overlap derivative matrices     ... done   (      0.0 sec)
Making the Q(x) pseudodensities                  ... done   (      0.0 sec)
Adding the E*S(x)*S(y) terms to the Hessian      ... done   (      0.0 sec)
Calculating energy weighted overlap derivatives  ... done   (      0.0 sec)
Two electron integral derivatives                ... done   (      1.8 sec)
Exchange-correlation integral derivatives        ... done   (      8.4 sec)
tr(F(y)Q(x)) contribution to the Hessian         ... done   (      0.0 sec)
Response fock operator R(S(x))                   ... done   (      2.9 sec)
XC Response fock operator R(S(x))                ... done   (      2.8 sec)
tr(F(y)S(x)) contribution to the Hessian         ... done   (      0.0 sec)
Transforming and finalizing RHSs                 ... done   (      0.0 sec)

----------------------------------------------
Solving the CP-SCF equations                     ...
----------------------------------------------
     CP-SCF ITERATION   0: 
     CP-SCF ITERATION   1:      0.001888654109
     CP-SCF ITERATION   2:      0.000207809192
     CP-SCF ITERATION   3:      0.000029083082
     CP-SCF ITERATION   4:      0.000001833014
     CP-SCF ITERATION   5:      0.000000920726

                                                 ... done   (     27.0 sec)
Forming perturbed density Hessian contributions  ... done   (      0.0 sec)
Making the perturbed densities                   ... done   (      0.0 sec)
2nd integral derivative contribs                 ... done   (      9.2 sec)
Exchange-correlation Hessian                     ... done   (      8.7 sec)
Dipol derivatives                                ... done   (      0.2 sec)

Total SCF Hessian time: 0 days 0 hours 1 min 1 sec 

Writing the Hessian file to the disk             ... done


Maximum memory used throughout the entire calculation: 88.1 MB

-----------------------
VIBRATIONAL FREQUENCIES
-----------------------

Scaling factor for frequencies =  1.000000000  (already applied!)

   0:         0.00 cm**-1
   1:         0.00 cm**-1
   2:         0.00 cm**-1
   3:         0.00 cm**-1
   4:         0.00 cm**-1
   5:         0.00 cm**-1
   6:       636.26 cm**-1
   7:       637.16 cm**-1
   8:       639.02 cm**-1
   9:       639.59 cm**-1
  10:       672.94 cm**-1
  11:       811.50 cm**-1
  12:       812.37 cm**-1
  13:       834.58 cm**-1
  14:       834.87 cm**-1
  15:      1020.14 cm**-1
  16:      1020.27 cm**-1
  17:      1052.91 cm**-1
  18:      1052.97 cm**-1
  19:      1175.53 cm**-1
  20:      1262.64 cm**-1
  21:      1443.30 cm**-1
  22:      1443.80 cm**-1
  23:      1492.23 cm**-1
  24:      1492.67 cm**-1
  25:      3142.73 cm**-1
  26:      3144.40 cm**-1
  27:      3168.95 cm**-1
  28:      3169.94 cm**-1
  29:      3193.11 cm**-1


------------
NORMAL MODES
------------

These modes are the Cartesian displacements weighted by the diagonal matrix
M(i,i)=1/sqrt(m[i]) where m[i] is the mass of the displaced atom
Thus, these vectors are normalized but *not* orthogonal

                  0          1          2          3          4          5    
      0       0.000000   0.000000   0.000000   0.000000   0.000000   0.000000
      1       0.000000   0.000000   0.000000   0.000000   0.000000   0.000000
      2       0.000000   0.000000   0.000000   0.000000   0.000000   0.000000
      3       0.000000   0.000000   0.000000   0.000000   0.000000   0.000000
      4       0.000000   0.000000   0.000000   0.000000   0.000000   0.000000
      5       0.000000   0.000000   0.000000   0.000000   0.000000   0.000000
      6       0.000000   0.000000   0.000000   0.000000   0.000000   0.000000
      7       0.000000   0.000000   0.000000   0.000000   0.000000   0.000000
      8       0.000000   0.000000   0.000000   0.000000   0.000000   0.000000
      9       0.000000   0.000000   0.000000   0.000000   0.000000   0.000000
     10       0.000000   0.000000   0.000000   0.000000   0.000000   0.000000
     11       0.000000   0.000000   0.000000   0.000000   0.000000   0.000000
     12       0.000000   0.000000   0.000000   0.000000   0.000000   0.000000
     13       0.000000   0.000000   0.000000   0.000000   0.000000   0.000000
     14       0.000000   0.000000   0.000000   0.000000   0.000000   0.000000
     15       0.000000   0.000000   0.000000   0.000000   0.000000   0.000000
     16       0.000000   0.000000   0.000000   0.000000   0.000000   0.000000
     17       0.000000   0.000000   0.000000   0.000000   0.000000   0.000000
     18       0.000000   0.000000   0.000000   0.000000   0.000000   0.000000
     19       0.000000   0.000000   0.000000   0.000000   0.000000   0.000000
     20       0.000000   0.000000   0.000000   0.000000   0.000000   0.000000
     21       0.000000   0.000000   0.000000   0.000000   0.000000   0.000000
     22       0.000000   0.000000   0.000000   0.000000   0.000000   0.000000
     23       0.000000   0.000000   0.000000   0.000000   0.000000   0.000000
     24       0.000000   0.000000   0.000000   0.000000   0.000000   0.000000
     25       0.000000   0.000000   0.000000   0.000000   0.000000   0.000000
     26       0.000000   0.000000   0.000000   0.000000   0.000000   0.000000
     27       0.000000   0.000000   0.000000   0.000000   0.000000   0.000000
     28       0.000000   0.000000   0.000000   0.000000   0.000000   0.000000
     29       0.000000   0.000000   0.000000   0.000000   0.000000   0.000000
                  6          7          8          9         10         11    
      0      -0.003866  -0.000213   0.000359   0.000698  -0.000406   0.000292
      1      -0.001075  -0.000042   0.000070   0.000219  -0.000133   0.000093
      2       0.368229   0.021522  -0.034545  -0.069654   0.038431  -0.039603
      3       0.002704  -0.002391   0.000890  -0.000450  -0.000405  -0.000109
      4       0.000820  -0.000708   0.000278  -0.000101  -0.000105  -0.000012
      5      -0.256221   0.232035  -0.089403   0.044337   0.039720  -0.006862
      6      -0.001013   0.003445   0.000239  -0.000894  -0.000384  -0.000655
      7      -0.000312   0.000941   0.000077  -0.000280  -0.000136   0.000214
      8       0.099725  -0.331453  -0.021626   0.088888   0.036940   0.050640
      9      -0.000772  -0.002787  -0.001563  -0.000365  -0.000403   0.001309
     10      -0.000285  -0.000789  -0.000433  -0.000123  -0.000108   0.000268
     11       0.077645   0.268937   0.146873   0.034389   0.035482  -0.074401
     12       0.002960   0.001992   0.000006   0.001006  -0.000376  -0.000789
     13       0.000831   0.000605  -0.000005   0.000289  -0.000099  -0.000581
     14      -0.290060  -0.192954   0.003361  -0.098140   0.036373   0.070596
     15      -0.003799   0.002252  -0.004495  -0.004952   0.004762  -0.003140
     16      -0.001073   0.000597  -0.001254  -0.001436   0.001368  -0.000412
     17       0.359305  -0.220791   0.436165   0.470831  -0.454432   0.326014
     18       0.005770  -0.001228  -0.005865   0.002658   0.004822  -0.000336
     19       0.001763  -0.000219  -0.001823   0.000784   0.001490  -0.000666
     20      -0.550031   0.111995   0.558802  -0.248898  -0.458133   0.052568
     21      -0.002125   0.003772   0.001172   0.006507   0.004648   0.003697
     22      -0.000631   0.001052   0.000351   0.001845   0.001323   0.001407
     23       0.200584  -0.361223  -0.108055  -0.634426  -0.443652  -0.412220
     24      -0.003605  -0.007497   0.005941   0.001199   0.004723  -0.006133
     25      -0.000769  -0.002162   0.001565   0.000496   0.001314  -0.001785
     26       0.335777   0.700800  -0.543188  -0.110691  -0.433967   0.608670
     27       0.003600   0.002164   0.004068  -0.005353   0.004559   0.005338
     28       0.000955   0.000645   0.001319  -0.001738   0.001426   0.001677
     29      -0.337514  -0.208000  -0.399265   0.525329  -0.437412  -0.579435
                 12         13         14         15         16         17    
      0       0.000798   0.258203  -0.101213  -0.083635  -0.009759  -0.042017
      1       0.000184  -0.184246  -0.036380   0.039816  -0.052896   0.023303
      2      -0.064626   0.002215  -0.001056  -0.000756  -0.000258  -0.000363
      3      -0.000771  -0.204341  -0.152605   0.024462   0.075022   0.002358
      4      -0.000269  -0.215820  -0.023780  -0.045039   0.055338   0.057214
      5       0.075576  -0.002840  -0.001413   0.000130   0.000958   0.000190
      6       0.000639  -0.129268  -0.063677  -0.012621  -0.057485   0.065770
      7       0.000054   0.121521   0.276698   0.087544   0.018597   0.012139
      8      -0.057645  -0.000843  -0.000231   0.000135  -0.000551   0.000742
      9      -0.000376  -0.040502   0.320442  -0.059748   0.071758   0.020929
     10      -0.000071   0.083894   0.030154  -0.041379  -0.028540  -0.063062
     11       0.017376  -0.000193   0.003840  -0.000759   0.000670   0.000012
     12      -0.000296   0.115814  -0.002790   0.054302  -0.003931  -0.046707
     13       0.000071   0.194553  -0.246828   0.034616   0.084743  -0.029222
     14       0.029103   0.001661  -0.001100   0.000683   0.000198  -0.000583
     15      -0.005578   0.308704   0.173190  -0.152382  -0.304780  -0.054462
     16      -0.001777  -0.088298   0.393888  -0.057180  -0.521803   0.002335
     17       0.537256   0.002701   0.002243  -0.001612  -0.004680  -0.000567
     18       0.006324  -0.334607   0.153343   0.381649   0.116278  -0.217197
     19       0.002259  -0.046435  -0.386291  -0.476069   0.015617   0.320753
     20      -0.625443  -0.003503  -0.001167   0.002408   0.001178  -0.001234
     21      -0.004631   0.292430  -0.301921   0.197772  -0.539721   0.561508
     22      -0.001430   0.284947   0.173324   0.177651  -0.170965   0.210052
     23       0.475755   0.003272   0.000217   0.002505  -0.005982   0.006346
     24       0.001354  -0.006071   0.315199  -0.036785   0.100674   0.054568
     25       0.000395  -0.433172  -0.025729  -0.461166  -0.402380  -0.585912
     26      -0.141273  -0.000954  -0.000212  -0.001585  -0.000314  -0.001128
     27       0.002597  -0.259346  -0.341668   0.530118  -0.273324  -0.348400
     28       0.000926   0.284117  -0.153580  -0.083564   0.159141   0.048349
     29      -0.243725  -0.001519  -0.001563   0.005046  -0.002303  -0.003390
                 18         19         20         21         22         23    
      0       0.034870  -0.249286   0.037887  -0.126218   0.231839  -0.176903
      1       0.058784   0.157351   0.059883  -0.348156   0.130152  -0.057676
      2       0.000550  -0.002086   0.000581  -0.002348   0.002803  -0.002011
      3       0.057968  -0.226807  -0.045055  -0.265981  -0.134681   0.177032
      4      -0.022249  -0.187915   0.054313   0.334619  -0.074428  -0.116534
      5       0.000534  -0.002915  -0.000298  -0.001727  -0.001653   0.001492
      6      -0.000505   0.109279  -0.066085   0.343156   0.214469  -0.076293
      7      -0.049469  -0.274302  -0.026056   0.035316   0.206967   0.140627
      8      -0.000157   0.000318  -0.000781   0.003665   0.002805  -0.000396
      9      -0.043739   0.293990   0.004464  -0.138400   0.063559  -0.020440
     10      -0.026678   0.019210  -0.070707  -0.116793  -0.410127  -0.219026
     11      -0.000524   0.003070  -0.000166  -0.001869  -0.000533  -0.000870
     12      -0.048459   0.073229   0.068808   0.188314  -0.374551   0.140095
     13       0.040188   0.285749  -0.017335   0.094832   0.150085   0.105252
     14      -0.000404   0.001617   0.000668   0.002261  -0.003378   0.001784
     15       0.330678  -0.283625  -0.236305   0.253856  -0.014608   0.064644
     16       0.526354   0.180550  -0.373589   0.249740  -0.263831   0.376004
     17       0.005000  -0.002364  -0.003602   0.003319  -0.001206   0.001808
     18       0.338131  -0.257869   0.282982   0.269159  -0.098817  -0.257135
     19      -0.360068  -0.215305  -0.340570  -0.308987  -0.122777   0.428821
     20       0.002364  -0.003385   0.001880   0.001806  -0.001167  -0.001299
     21      -0.143436   0.123069   0.409169  -0.262366  -0.290880  -0.027267
     22      -0.105711  -0.313335   0.163492  -0.207924   0.007196   0.199741
     23      -0.001786   0.000369   0.004735  -0.003384  -0.003129   0.000273
     24      -0.030525   0.335444  -0.028644  -0.155042   0.012412  -0.076500
     25      -0.221563   0.019805   0.440170   0.094284   0.390719   0.520901
     26      -0.001039   0.003488   0.001004  -0.000681   0.001137   0.000772
     27      -0.496464   0.078157  -0.427422  -0.115995   0.384329  -0.221977
     28       0.154126   0.327178   0.109346   0.175060  -0.042861   0.230392
     29      -0.004539   0.001841  -0.004056  -0.000845   0.003841  -0.001552
                 24         25         26         27         28         29    
      0       0.000414   0.016894   0.039802  -0.035030  -0.032895   0.036896
      1      -0.196236  -0.011268  -0.024922   0.025657   0.016511  -0.023542
      2      -0.000604   0.000143   0.000340  -0.000288  -0.000292   0.000313
      3       0.055577   0.006006  -0.038666  -0.034502   0.026477   0.034221
      4       0.160708   0.005598  -0.031963  -0.032066   0.016921   0.028514
      5       0.001074   0.000081  -0.000507  -0.000463   0.000331   0.000450
      6      -0.196903   0.013718  -0.012835  -0.002935  -0.021436  -0.016162
      7      -0.094034  -0.032668   0.033232   0.019421   0.050388   0.040024
      8      -0.002349   0.000044  -0.000034   0.000025  -0.000072  -0.000049
      9       0.157925  -0.054472   0.007644  -0.055831  -0.001121  -0.039554
     10      -0.040304  -0.003664  -0.000178  -0.003402  -0.004750  -0.002609
     11       0.001523  -0.000604   0.000083  -0.000615  -0.000025  -0.000434
     12      -0.164388   0.011541   0.005710  -0.001601   0.014705  -0.010448
     13       0.126411   0.043028   0.024843  -0.023851   0.051072  -0.040378
     14      -0.001329   0.000258   0.000139  -0.000095   0.000316  -0.000238
     15       0.325353  -0.209951  -0.483327   0.403412   0.344468  -0.386802
     16       0.271884   0.133981   0.305249  -0.259494  -0.212669   0.244952
     17       0.004277  -0.001781  -0.004122   0.003439   0.002954  -0.003297
     18       0.274601  -0.076950   0.470592   0.399034  -0.268256  -0.358595
     19      -0.049853  -0.065200   0.390696   0.335697  -0.216626  -0.298011
     20       0.002778  -0.001010   0.006169   0.005259  -0.003503  -0.004704
     21       0.501164  -0.161866   0.159989   0.073786   0.225553   0.167689
     22       0.180699   0.402928  -0.403295  -0.199715  -0.561439  -0.419854
     23       0.005873  -0.000475   0.000449   0.000176   0.000657   0.000480
     24       0.182997   0.659343  -0.091561   0.612288   0.014944   0.410762
     25       0.131529   0.042917  -0.004661   0.039389   0.006684   0.026652
     26       0.002253   0.007301  -0.001011   0.006796   0.000182   0.004549
     27       0.471964  -0.135361  -0.075407   0.059321  -0.146658   0.107934
     28      -0.016474  -0.526859  -0.300040   0.253820  -0.566691   0.422333
     29       0.004903  -0.003096  -0.001745   0.001439  -0.003348   0.002475


-----------
IR SPECTRUM
-----------

 Mode    freq (cm**-1)   T**2         TX         TY         TZ
-------------------------------------------------------------------
   6:       636.26    0.000842  ( -0.003378   0.007072   0.027930)
   7:       637.16    0.003089  ( -0.004505  -0.001169   0.055381)
   8:       639.02    0.077973  (  0.011713   0.005259  -0.278942)
   9:       639.59    0.000183  (  0.000557   0.003103   0.013149)
  10:       672.94  119.693986  (  0.156013   0.045422 -10.939268)
  11:       811.50    0.000378  ( -0.016421   0.008002   0.006634)
  12:       812.37    0.000352  (  0.001384   0.008163  -0.016835)
  13:       834.58    0.001021  (  0.005428   0.031495   0.000014)
  14:       834.87    0.000654  (  0.019574   0.016422  -0.000875)
  15:      1020.14   24.438478  (  3.569160  -3.420365   0.026127)
  16:      1020.27   24.787490  ( -3.510139  -3.530474  -0.046528)
  17:      1052.91    0.005787  ( -0.076067  -0.000980  -0.000402)
  18:      1052.97    0.014999  (  0.114905  -0.042349   0.001571)
  19:      1175.53    0.000227  (  0.014383   0.004499   0.000261)
  20:      1262.64    0.005513  ( -0.016288   0.072441  -0.000096)
  21:      1443.30    0.009471  (  0.094002  -0.025174  -0.001093)
  22:      1443.80    0.006887  (  0.011603   0.082163   0.001082)
  23:      1492.23   10.427221  (  0.911922  -3.097680   0.000537)
  24:      1492.67    9.616400  ( -2.974154  -0.877428  -0.030411)
  25:      3142.73    0.372829  ( -0.604508   0.085852  -0.005308)
  26:      3144.40    0.046068  (  0.178099   0.119781   0.001229)
  27:      3168.95  176.118395  (-13.190752  -1.450102  -0.140250)
  28:      3169.94  175.966649  ( -1.445100  13.186269   0.025200)
  29:      3193.11    0.325433  (  0.526168   0.220335   0.005729)

The first frequency considered to be a vibration is 6
The total number of vibrations considered is 24


--------------------------
THERMOCHEMISTRY AT 298.15K
--------------------------

Temperature         ... 298.15 K
Pressure            ... 1.00 atm
Total Mass          ... 65.09 AMU

Throughout the following assumptions are being made:
  (1) The electronic state is orbitally nondegenerate
  (2) There are no thermally accessible electronically excited states
  (3) Hindered rotations indicated by low frequency modes are not
      treated as such but are treated as vibrations and this may
      cause some error
  (4) All equations used are the standard statistical mechanics
      equations for an ideal gas
  (5) All vibrations are strictly harmonic

freq.     636.26  E(vib)   ...       0.09 
freq.     637.16  E(vib)   ...       0.09 
freq.     639.02  E(vib)   ...       0.09 
freq.     639.59  E(vib)   ...       0.09 
freq.     672.94  E(vib)   ...       0.08 
freq.     811.50  E(vib)   ...       0.05 
freq.     812.37  E(vib)   ...       0.05 
freq.     834.58  E(vib)   ...       0.04 
freq.     834.87  E(vib)   ...       0.04 
freq.    1020.14  E(vib)   ...       0.02 
freq.    1020.27  E(vib)   ...       0.02 
freq.    1052.91  E(vib)   ...       0.02 
freq.    1052.97  E(vib)   ...       0.02 
freq.    1175.53  E(vib)   ...       0.01 
freq.    1262.64  E(vib)   ...       0.01 
freq.    1443.30  E(vib)   ...       0.00 
freq.    1443.80  E(vib)   ...       0.00 
freq.    1492.23  E(vib)   ...       0.00 
freq.    1492.67  E(vib)   ...       0.00 
freq.    3142.73  E(vib)   ...       0.00 
freq.    3144.40  E(vib)   ...       0.00 
freq.    3168.95  E(vib)   ...       0.00 
freq.    3169.94  E(vib)   ...       0.00 
freq.    3193.11  E(vib)   ...       0.00 

------------
INNER ENERGY
------------

The inner energy is: U= E(el) + E(ZPE) + E(vib) + E(rot) + E(trans)
    E(el)   - is the total energy from the electronic structure calculation
              = E(kin-el) + E(nuc-el) + E(el-el) + E(nuc-nuc)
    E(ZPE)  - the the zero temperature vibrational energy from the frequency calculation
    E(vib)  - the the finite temperature correction to E(ZPE) due to population
              of excited vibrational states
    E(rot)  - is the rotational thermal energy
    E(trans)- is the translational thermal energy

Summary of contributions to the inner energy U:
Electronic energy                ...   -193.14472828 Eh
Zero point energy                ...      0.07926634 Eh      49.74 kcal/mol
Thermal vibrational correction   ...      0.00115515 Eh       0.72 kcal/mol
Thermal rotational correction    ...      0.00141627 Eh       0.89 kcal/mol
Thermal translational correction ...      0.00141627 Eh       0.89 kcal/mol
-----------------------------------------------------------------------
Total thermal energy                   -193.06147424 Eh


Summary of corrections to the electronic energy:
(perhaps to be used in another calculation)
Total thermal correction                  0.00398770 Eh       2.50 kcal/mol
Non-thermal (ZPE) correction              0.07926634 Eh      49.74 kcal/mol
-----------------------------------------------------------------------
Total correction                          0.08325404 Eh      52.24 kcal/mol


--------
ENTHALPY
--------

The enthalpy is H = U + kB*T
                kB is Boltzmann's constant
Total free energy                 ...   -193.06147424 Eh 
Thermal Enthalpy correction       ...      0.00094421 Eh       0.59 kcal/mol
-----------------------------------------------------------------------
Total Enthalpy                    ...   -193.06053003 Eh


Note: Only C1 symmetry has been detected, increase convergence thresholds 
      if your molecule has a higher symmetry. Symmetry factor of 1.0 is   
      used for the rotational entropy correction. 
 

Note: Rotational entropy computed according to Herzberg 
Infrared and Raman Spectra, Chapter V,1, Van Nostrand Reinhold, 1945 
Point Group:  C1, Symmetry Number:   1  
Rotational constants in cm-1:     0.297590     0.297561     0.148788 

Vibrational entropy computed according to the QRRHO of S. Grimme
Chem.Eur.J. 2012 18 9955


-------
ENTROPY
-------

The entropy contributions are T*S = T*(S(el)+S(vib)+S(rot)+S(trans))
     S(el)   - electronic entropy
     S(vib)  - vibrational entropy
     S(rot)  - rotational entropy
     S(trans)- translational entropy
The entropies will be listed as mutliplied by the temperature to get
units of energy

Electronic entropy                ...      0.00000000 Eh      0.00 kcal/mol
Vibrational entropy               ...      0.00147767 Eh      0.93 kcal/mol
Rotational entropy                ...      0.01155468 Eh      7.25 kcal/mol
Translational entropy             ...      0.01826321 Eh     11.46 kcal/mol
-----------------------------------------------------------------------
Final entropy term                ...      0.03129556 Eh     19.64 kcal/mol

In case the symmetry of your molecule has not been determined correctly
or in case you have a reason to use a different symmetry number we print 
out the resulting rotational entropy values for sn=1,12 :
 --------------------------------------------------------
|  sn= 1 | S(rot)=       0.01155468 Eh      7.25 kcal/mol|
|  sn= 2 | S(rot)=       0.01090023 Eh      6.84 kcal/mol|
|  sn= 3 | S(rot)=       0.01051740 Eh      6.60 kcal/mol|
|  sn= 4 | S(rot)=       0.01024577 Eh      6.43 kcal/mol|
|  sn= 5 | S(rot)=       0.01003508 Eh      6.30 kcal/mol|
|  sn= 6 | S(rot)=       0.00986294 Eh      6.19 kcal/mol|
|  sn= 7 | S(rot)=       0.00971739 Eh      6.10 kcal/mol|
|  sn= 8 | S(rot)=       0.00959132 Eh      6.02 kcal/mol|
|  sn= 9 | S(rot)=       0.00948011 Eh      5.95 kcal/mol|
|  sn=10 | S(rot)=       0.00938063 Eh      5.89 kcal/mol|
|  sn=11 | S(rot)=       0.00929064 Eh      5.83 kcal/mol|
|  sn=12 | S(rot)=       0.00920848 Eh      5.78 kcal/mol|
 --------------------------------------------------------


-------------------
GIBBS FREE ENERGY
-------------------

The Gibbs free energy is G = H - T*S

Total enthalpy                    ...   -193.06053003 Eh 
Total entropy correction          ...     -0.03129556 Eh    -19.64 kcal/mol
-----------------------------------------------------------------------
Final Gibbs free energy         ...   -193.09182559 Eh

For completeness - the Gibbs free energy minus the electronic energy
G-E(el)                           ...      0.05290269 Eh     33.20 kcal/mol

[1598604820.344604] [aleph:22061:0]            sys.c:618  UCX  ERROR shmget(size=2097152 flags=0xfb0) for mm_recv_desc failed: Operation not permitted, please check shared memory limits by 'ipcs -l'
[1598604820.345238] [aleph:22062:0]            sys.c:618  UCX  ERROR shmget(size=2097152 flags=0xfb0) for mm_recv_desc failed: Operation not permitted, please check shared memory limits by 'ipcs -l'
[1598604820.353899] [aleph:22061:0]            sys.c:618  UCX  ERROR shmget(size=2097152 flags=0xb80) for ucp_am_bufs failed: Operation not permitted, please check shared memory limits by 'ipcs -l'

Timings for individual modules:

Sum of individual times         ...       70.432 sec (=   1.174 min)
GTO integral calculation        ...        1.303 sec (=   0.022 min)   1.9 %
SCF iterations                  ...        6.525 sec (=   0.109 min)   9.3 %
Analytical frequency calculation...       62.603 sec (=   1.043 min)  88.9 %
                             ****ORCA TERMINATED NORMALLY****
TOTAL RUN TIME: 0 days 0 hours 1 minutes 11 seconds 694 msec
