
                                 *****************
                                 * O   R   C   A *
                                 *****************

           --- An Ab Initio, DFT and Semiempirical electronic structure package ---

                  #######################################################
                  #                        -***-                        #
                  #          Department of theory and spectroscopy      #
                  #               Directorship: Frank Neese             #
                  #        Max Planck Institute fuer Kohlenforschung    #
                  #                Kaiser Wilhelm Platz 1               #
                  #                 D-45470 Muelheim/Ruhr               #
                  #                      Germany                        #
                  #                                                     #
                  #                  All rights reserved                #
                  #                        -***-                        #
                  #######################################################


                         Program Version 4.2.1 -  RELEASE  -


 With contributions from (in alphabetic order):
   Daniel Aravena         : Magnetic Suceptibility
   Michael Atanasov       : Ab Initio Ligand Field Theory (pilot matlab implementation)
   Alexander A. Auer      : GIAO ZORA, VPT2
   Ute Becker             : Parallelization
   Giovanni Bistoni       : ED, misc. LED, open-shell LED, HFLD
   Martin Brehm           : Molecular dynamics
   Dmytro Bykov           : SCF Hessian
   Vijay G. Chilkuri      : MRCI spin determinant printing, contributions to CSF-ICE
   Dipayan Datta          : RHF DLPNO-CCSD density
   Achintya Kumar Dutta   : EOM-CC, STEOM-CC
   Dmitry Ganyushin       : Spin-Orbit,Spin-Spin,Magnetic field MRCI
   Miquel Garcia          : C-PCM Hessian, Gaussian charge scheme
   Yang Guo               : DLPNO-NEVPT2, CIM, IAO-localization
   Andreas Hansen         : Spin unrestricted coupled pair/coupled cluster methods
   Benjamin Helmich-Paris : CASSCF linear response (MC-RPA)
   Lee Huntington         : MR-EOM, pCC
   Robert Izsak           : Overlap fitted RIJCOSX, COSX-SCS-MP3, EOM
   Christian Kollmar      : KDIIS, OOCD, Brueckner-CCSD(T), CCSD density
   Simone Kossmann        : Meta GGA functionals, TD-DFT gradient, OOMP2, MP2 Hessian
   Martin Krupicka        : AUTO-CI
   Lucas Lang             : DCDCAS
   Dagmar Lenk            : GEPOL surface, SMD
   Dimitrios Liakos       : Extrapolation schemes; Compound Job, initial MDCI parallelization
   Dimitrios Manganas     : Further ROCIS development; embedding schemes
   Dimitrios Pantazis     : SARC Basis sets
   Taras Petrenko         : DFT Hessian,TD-DFT gradient, ASA, ECA, R-Raman, ABS, FL, XAS/XES, NRVS
   Peter Pinski           : DLPNO-MP2, DLPNO-MP2 Gradient
   Christoph Reimann      : Effective Core Potentials
   Marius Retegan         : Local ZFS, SOC
   Christoph Riplinger    : Optimizer, TS searches, QM/MM, DLPNO-CCSD(T), (RO)-DLPNO pert. Triples
   Tobias Risthaus        : Range-separated hybrids, TD-DFT gradient, RPA, STAB
   Michael Roemelt        : Original ROCIS implementation
   Masaaki Saitow         : Open-shell DLPNO-CCSD energy and density
   Barbara Sandhoefer     : DKH picture change effects
   Avijit Sen             : IP-ROCIS
   Kantharuban Sivalingam : CASSCF convergence, NEVPT2, FIC-MRCI
   Bernardo de Souza      : ESD, SOC TD-DFT
   Georgi Stoychev        : AutoAux, RI-MP2 NMR
   Willem Van den Heuvel  : Paramagnetic NMR
   Boris Wezisla          : Elementary symmetry handling
   Frank Wennmohs         : Technical directorship


 We gratefully acknowledge several colleagues who have allowed us to
 interface, adapt or use parts of their codes:
   Stefan Grimme, W. Hujo, H. Kruse,             : VdW corrections, initial TS optimization,
                  C. Bannwarth                     DFT functionals, gCP, sTDA/sTD-DF
   Ed Valeev, F. Pavosevic, A. Kumar             : LibInt (2-el integral package), F12 methods
   Garnet Chan, S. Sharma, J. Yang, R. Olivares  : DMRG
   Ulf Ekstrom                                   : XCFun DFT Library
   Mihaly Kallay                                 : mrcc  (arbitrary order and MRCC methods)
   Andreas Klamt, Michael Diedenhofen            : otool_cosmo (COSMO solvation model)
   Jiri Pittner, Ondrej Demel                    : Mk-CCSD
   Frank Weinhold                                : gennbo (NPA and NBO analysis)
   Christopher J. Cramer and Donald G. Truhlar   : smd solvation model
   Lars Goerigk                                  : TD-DFT with DH, B97 family of functionals
   V. Asgeirsson, H. Jonsson                     : NEB implementation
   FAccTs GmbH                                   : IRC, NEB, NEB-TS, Multilevel, MM, QM/MM, CI optimization
   S Lehtola, MJT Oliveira, MAL Marques          : LibXC Library


 Your calculation uses the libint2 library for the computation of 2-el integrals
 For citations please refer to: http://libint.valeyev.net

 Your ORCA version has been built with support for libXC version: 4.2.3
 For citations please refer to: https://tddft.org/programs/libxc/

 This ORCA versions uses:
   CBLAS   interface :  Fast vector & matrix operations
   LAPACKE interface :  Fast linear algebra routines
   SCALAPACK package :  Parallel linear algebra routines


----- Orbital basis set information -----
Your calculation utilizes the basis: def2-SVP
   F. Weigend and R. Ahlrichs, Phys. Chem. Chem. Phys. 7, 3297 (2005).

================================================================================
                                        WARNINGS
                       Please study these warnings very carefully!
================================================================================


INFO   : the flag for use of LIBINT has been found!

================================================================================
                                       INPUT FILE
================================================================================
NAME = ethane_sp_orca.inp
|  1> ! PBE0 Freq def2-SVP
|  2> %geom MaxIter 100 end
|  3> %output 
|  4> xyzfile=True 
|  5> end 
|  6> %scf 
|  7> maxiter 250 
|  8> end
|  9> %output
| 10> Print[P_Hirshfeld] = 1
| 11> end
| 12> % maxcore
| 13> 4000
| 14> %pal nprocs 2
| 15> end
| 16> *xyz 0 1
| 17> C    0.75223299  -0.06349418   0.08238115 
| 18> C   -0.75234172   0.06365098  -0.08200042 
| 19> H    1.25089750  -0.25302287  -0.88093608 
| 20> H    1.19395911   0.85360675   0.50291131 
| 21> H    1.01758342  -0.89325429   0.75635949 
| 22> H   -1.01736972   0.89246618  -0.75726585 
| 23> H   -1.25164566   0.25398479   0.88080243 
| 24> H   -1.19321592  -0.85403736  -0.50215204 
| 25> *
| 26> 
| 27>                          ****END OF INPUT****
================================================================================

                       ****************************
                       * Single Point Calculation *
                       ****************************

---------------------------------
CARTESIAN COORDINATES (ANGSTROEM)
---------------------------------
  C      0.752233   -0.063494    0.082381
  C     -0.752342    0.063651   -0.082000
  H      1.250897   -0.253023   -0.880936
  H      1.193959    0.853607    0.502911
  H      1.017583   -0.893254    0.756359
  H     -1.017370    0.892466   -0.757266
  H     -1.251646    0.253985    0.880802
  H     -1.193216   -0.854037   -0.502152

----------------------------
CARTESIAN COORDINATES (A.U.)
----------------------------
  NO LB      ZA    FRAG     MASS         X           Y           Z
   0 C     6.0000    0    12.011    1.421514   -0.119987    0.155678
   1 C     6.0000    0    12.011   -1.421720    0.120283   -0.154958
   2 H     1.0000    0     1.008    2.363854   -0.478144   -1.664728
   3 H     1.0000    0     1.008    2.256256    1.613083    0.950365
   4 H     1.0000    0     1.008    1.922954   -1.688006    1.429312
   5 H     1.0000    0     1.008   -1.922550    1.686517   -1.431025
   6 H     1.0000    0     1.008   -2.365268    0.479962    1.664475
   7 H     1.0000    0     1.008   -2.254851   -1.613897   -0.948930

--------------------------------
INTERNAL COORDINATES (ANGSTROEM)
--------------------------------
 C      0   0   0     0.000000000000     0.00000000     0.00000000
 C      1   0   0     1.518858864490     0.00000000     0.00000000
 H      1   2   0     1.101166428603   111.61214887     0.00000000
 H      1   2   3     1.101381721460   111.64854831   119.96443137
 H      1   2   3     1.101435197203   111.58837961   240.01338992
 H      2   1   3     1.101434463547   111.57389490   300.07639259
 H      2   1   3     1.101145181934   111.65493169   180.04496020
 H      2   1   3     1.101385188472   111.59620803    60.06070749

---------------------------
INTERNAL COORDINATES (A.U.)
---------------------------
 C      0   0   0     0.000000000000     0.00000000     0.00000000
 C      1   0   0     2.870227289964     0.00000000     0.00000000
 H      1   2   0     2.080902977927   111.61214887     0.00000000
 H      1   2   3     2.081309822467   111.64854831   119.96443137
 H      1   2   3     2.081410876975   111.58837961   240.01338992
 H      2   1   3     2.081409490565   111.57389490   300.07639259
 H      2   1   3     2.080862827542   111.65493169   180.04496020
 H      2   1   3     2.081316374170   111.59620803    60.06070749

---------------------
BASIS SET INFORMATION
---------------------
There are 2 groups of distinct atoms

 Group   1 Type C   : 7s4p1d contracted to 3s2p1d pattern {511/31/1}
 Group   2 Type H   : 4s1p contracted to 2s1p pattern {31/1}

Atom   0C    basis set group =>   1
Atom   1C    basis set group =>   1
Atom   2H    basis set group =>   2
Atom   3H    basis set group =>   2
Atom   4H    basis set group =>   2
Atom   5H    basis set group =>   2
Atom   6H    basis set group =>   2
Atom   7H    basis set group =>   2
[1598605031.404554] [aleph:23865:0]            sys.c:618  UCX  ERROR shmget(size=2097152 flags=0xfb0) for mm_recv_desc failed: Operation not permitted, please check shared memory limits by 'ipcs -l'
[1598605031.406595] [aleph:23866:0]            sys.c:618  UCX  ERROR shmget(size=2097152 flags=0xfb0) for mm_recv_desc failed: Operation not permitted, please check shared memory limits by 'ipcs -l'
[1598605031.419206] [aleph:23865:0]            sys.c:618  UCX  ERROR shmget(size=2097152 flags=0xb80) for ucp_am_bufs failed: Operation not permitted, please check shared memory limits by 'ipcs -l'


           ************************************************************
           *        Program running with 2 parallel MPI-processes     *
           *              working on a common directory               *
           ************************************************************
------------------------------------------------------------------------------
                           ORCA GTO INTEGRAL CALCULATION
------------------------------------------------------------------------------

                         BASIS SET STATISTICS AND STARTUP INFO

 # of primitive gaussian shells          ...   54
 # of primitive gaussian functions       ...   90
 # of contracted shells                  ...   30
 # of contracted basis functions         ...   58
 Highest angular momentum                ...    2
 Maximum contraction depth               ...    5
 Integral package used                   ... LIBINT
 Integral threshhold            Thresh   ...  1.000e-10
 Primitive cut-off              TCut     ...  1.000e-11


------------------------------ INTEGRAL EVALUATION ----------------------------


 * One electron integrals 
 Pre-screening matrix                    ... done
 Shell pair data                         ... done (   0.000 sec)

[1598605032.696934] [aleph:23879:0]            sys.c:618  UCX  ERROR shmget(size=2097152 flags=0xfb0) for mm_recv_desc failed: Operation not permitted, please check shared memory limits by 'ipcs -l'
[1598605032.698412] [aleph:23880:0]            sys.c:618  UCX  ERROR shmget(size=2097152 flags=0xfb0) for mm_recv_desc failed: Operation not permitted, please check shared memory limits by 'ipcs -l'
[1598605032.707625] [aleph:23879:0]            sys.c:618  UCX  ERROR shmget(size=2097152 flags=0xb80) for ucp_am_bufs failed: Operation not permitted, please check shared memory limits by 'ipcs -l'


           ************************************************************
           *        Program running with 2 parallel MPI-processes     *
           *              working on a common directory               *
           ************************************************************
-------------------------------------------------------------------------------
                                 ORCA SCF
-------------------------------------------------------------------------------

------------
SCF SETTINGS
------------
Hamiltonian:
 Density Functional     Method          .... DFT(GTOs)
 Exchange Functional    Exchange        .... PBE
   PBE kappa parameter   XKappa         ....  0.804000
   PBE mue parameter    XMuePBE         ....  0.219520
 Correlation Functional Correlation     .... PBE
   PBE beta parameter  CBetaPBE         ....  0.066725
 LDA part of GGA corr.  LDAOpt          .... PW91-LDA
 Gradients option       PostSCFGGA      .... off
 Hybrid DFT is turned on
   Fraction HF Exchange ScalHFX         ....  0.250000
   Scaling of DF-GGA-X  ScalDFX         ....  0.750000
   Scaling of DF-GGA-C  ScalDFC         ....  1.000000
   Scaling of DF-LDA-C  ScalLDAC        ....  1.000000
   Perturbative correction              ....  0.000000
   Density functional embedding theory  .... OFF
   NL short-range parameter             ....  6.900000


General Settings:
 Integral files         IntName         .... ethane_sp_orca
 Hartree-Fock type      HFTyp           .... RHF
 Total Charge           Charge          ....    0
 Multiplicity           Mult            ....    1
 Number of Electrons    NEL             ....   18
 Basis Dimension        Dim             ....   58
 Nuclear Repulsion      ENuc            ....     42.1288288289 Eh

Convergence Acceleration:
 DIIS                   CNVDIIS         .... on
   Start iteration      DIISMaxIt       ....    12
   Startup error        DIISStart       ....  0.200000
   # of expansion vecs  DIISMaxEq       ....     5
   Bias factor          DIISBfac        ....   1.050
   Max. coefficient     DIISMaxC        ....  10.000
 Newton-Raphson         CNVNR           .... off
 SOSCF                  CNVSOSCF        .... on
   Start iteration      SOSCFMaxIt      ....   150
   Startup grad/error   SOSCFStart      ....  0.003300
 Level Shifting         CNVShift        .... on
   Level shift para.    LevelShift      ....    0.2500
   Turn off err/grad.   ShiftErr        ....    0.0010
 Zerner damping         CNVZerner       .... off
 Static damping         CNVDamp         .... on
   Fraction old density DampFac         ....    0.7000
   Max. Damping (<1)    DampMax         ....    0.9800
   Min. Damping (>=0)   DampMin         ....    0.0000
   Turn off err/grad.   DampErr         ....    0.1000
 Fernandez-Rico         CNVRico         .... off

SCF Procedure:
 Maximum # iterations   MaxIter         ....   250
 SCF integral mode      SCFMode         .... Direct
   Integral package                     .... LIBINT
 Reset frequency        DirectResetFreq ....    20
 Integral Threshold     Thresh          ....  1.000e-10 Eh
 Primitive CutOff       TCut            ....  1.000e-11 Eh

Convergence Tolerance:
 Convergence Check Mode ConvCheckMode   .... Total+1el-Energy
 Convergence forced     ConvForced      .... 0
 Energy Change          TolE            ....  1.000e-06 Eh
 1-El. energy change                    ....  1.000e-03 Eh
 Orbital Gradient       TolG            ....  5.000e-05
 Orbital Rotation angle TolX            ....  5.000e-05
 DIIS Error             TolErr          ....  1.000e-06


Diagonalization of the overlap matrix:
Smallest eigenvalue                        ... 4.432e-03
Time for diagonalization                   ...    0.002 sec
Threshold for overlap eigenvalues          ... 1.000e-08
Number of eigenvalues below threshold      ... 0
Time for construction of square roots      ...    0.001 sec
Total time needed                          ...    0.003 sec

-------------------
DFT GRID GENERATION
-------------------

General Integration Accuracy     IntAcc      ...  4.340
Radial Grid Type                 RadialGrid  ... Gauss-Chebyshev
Angular Grid (max. acc.)         AngularGrid ... Lebedev-110
Angular grid pruning method      GridPruning ... 3 (G Style)
Weight generation scheme         WeightScheme... Becke
Basis function cutoff            BFCut       ...    1.0000e-10
Integration weight cutoff        WCut        ...    1.0000e-14
Grids for H and He will be reduced by one unit

# of grid points (after initial pruning)     ...   8076 (   0.0 sec)
# of grid points (after weights+screening)   ...   7762 (   0.0 sec)
nearest neighbour list constructed           ...    0.0 sec
Grid point re-assignment to atoms done       ...    0.0 sec
Grid point division into batches done        ...    0.0 sec
Reduced shell lists constructed in    0.0 sec

Total number of grid points                  ...     7762
Total number of batches                      ...      124
Average number of points per batch           ...       62
Average number of grid points per atom       ...      970
Average number of shells per batch           ...    26.81 (89.37%)
Average number of basis functions per batch  ...    51.35 (88.53%)
Average number of large shells per batch     ...    24.25 (90.47%)
Average number of large basis fcns per batch ...    45.81 (89.21%)
Maximum spatial batch extension              ...  19.55, 19.12, 19.06 au
Average spatial batch extension              ...   2.39,  2.13,  2.24 au

Time for grid setup =    0.042 sec

------------------------------
INITIAL GUESS: MODEL POTENTIAL
------------------------------
Loading Hartree-Fock densities                     ... done
Calculating cut-offs                               ... done
Setting up the integral package                    ... done
Initializing the effective Hamiltonian             ... done
Starting the Coulomb interaction                   ... done (   0.0 sec)
Reading the grid                                   ... done
Mapping shells                                     ... done
Starting the XC term evaluation                    ... done (   0.0 sec)
  promolecular density results
     # of electrons  =     17.993951743
     EX              =    -11.967751663
     EC              =     -0.554097535
     EX+EC           =    -12.521849198
Transforming the Hamiltonian                       ... done (   0.0 sec)
Diagonalizing the Hamiltonian                      ... done (   0.0 sec)
Back transforming the eigenvectors                 ... done (   0.0 sec)
Now organizing SCF variables                       ... done
                      ------------------
                      INITIAL GUESS DONE (   0.2 sec)
                      ------------------
--------------
SCF ITERATIONS
--------------
ITER       Energy         Delta-E        Max-DP      RMS-DP      [F,P]     Damp
               ***  Starting incremental Fock matrix formation  ***
  0    -79.5705784114   0.000000000000 0.06899813  0.00352988  0.1645138 0.7000
  1    -79.6135638124  -0.042985401019 0.04264718  0.00253671  0.0880412 0.7000
                               ***Turning on DIIS***
  2    -79.6317119739  -0.018148161545 0.05980825  0.00437011  0.0352164 0.0000
  3    -79.6562262936  -0.024514319620 0.03070275  0.00167750  0.0460118 0.0000
  4    -79.6637580191  -0.007531725504 0.00456971  0.00042266  0.0092382 0.0000
                      *** Initiating the SOSCF procedure ***
                           *** Shutting down DIIS ***
                      *** Re-Reading the Fockian *** 
                      *** Removing any level shift *** 
ITER      Energy       Delta-E        Grad      Rot      Max-DP    RMS-DP
  5    -79.66409623  -0.0003382146  0.000774  0.000774  0.001684  0.000153
               *** Restarting incremental Fock matrix formation ***
  6    -79.66411930  -0.0000230693  0.000335  0.000649  0.001066  0.000100
  7    -79.66411976  -0.0000004598  0.000336  0.000226  0.000563  0.000027
  8    -79.66412112  -0.0000013584  0.000025  0.000027  0.000026  0.000003
                 **** Energy Check signals convergence ****
              ***Rediagonalizing the Fockian in SOSCF/NRSCF***

               *****************************************************
               *                     SUCCESS                       *
               *           SCF CONVERGED AFTER   9 CYCLES          *
               *****************************************************

Setting up the final grid:

General Integration Accuracy     IntAcc      ...  4.670
Radial Grid Type                 RadialGrid  ... Gauss-Chebyshev
Angular Grid (max. acc.)         AngularGrid ... Lebedev-302
Angular grid pruning method      GridPruning ... 3 (G Style)
Weight generation scheme         WeightScheme... Becke
Basis function cutoff            BFCut       ...    1.0000e-10
Integration weight cutoff        WCut        ...    1.0000e-14
Grids for H and He will be reduced by one unit

# of grid points (after initial pruning)     ...  32788 (   0.0 sec)
# of grid points (after weights+screening)   ...  31230 (   0.0 sec)
nearest neighbour list constructed           ...    0.0 sec
Grid point re-assignment to atoms done       ...    0.0 sec
Grid point division into batches done        ...    0.1 sec
Reduced shell lists constructed in    0.1 sec

Total number of grid points                  ...    31230
Total number of batches                      ...      493
Average number of points per batch           ...       63
Average number of grid points per atom       ...     3904
Average number of shells per batch           ...    24.97 (83.24%)
Average number of basis functions per batch  ...    47.74 (82.31%)
Average number of large shells per batch     ...    22.29 (89.28%)
Average number of large basis fcns per batch ...    42.12 (88.23%)
Maximum spatial batch extension              ...  17.95, 18.89, 17.32 au
Average spatial batch extension              ...   1.41,  1.37,  1.40 au

Final grid set up in    0.2 sec
Final integration                            ... done (   0.1 sec)
Change in XC energy                          ...    -0.000032765
Integrated number of electrons               ...    17.999973330
Previous integrated no of electrons          ...    17.998982717

----------------
TOTAL SCF ENERGY
----------------

Total Energy       :          -79.66415389 Eh           -2167.77183 eV

Components:
Nuclear Repulsion  :           42.12882883 Eh            1146.38371 eV
Electronic Energy  :         -121.79298272 Eh           -3314.15555 eV
One Electron Energy:         -188.95972054 Eh           -5141.85540 eV
Two Electron Energy:           67.16673782 Eh            1827.69985 eV

Virial components:
Potential Energy   :         -158.26065296 Eh           -4306.49130 eV
Kinetic Energy     :           78.59649907 Eh            2138.71947 eV
Virial Ratio       :            2.01358400


DFT components:
N(Alpha)           :        8.999986665109 electrons
N(Beta)            :        8.999986665109 electrons
N(Total)           :       17.999973330217 electrons
E(X)               :       -9.269752126515 Eh       
E(C)               :       -0.566748811539 Eh       
E(XC)              :       -9.836500938055 Eh       
DFET-embed. en.    :        0.000000000000 Eh       

---------------
SCF CONVERGENCE
---------------

  Last Energy change         ...   -4.7326e-09  Tolerance :   1.0000e-06
  Last MAX-Density change    ...    8.0691e-06  Tolerance :   1.0000e-05
  Last RMS-Density change    ...    7.6043e-07  Tolerance :   1.0000e-06
  Last Orbital Gradient      ...    9.9703e-06  Tolerance :   5.0000e-05
  Last Orbital Rotation      ...    8.0483e-06  Tolerance :   5.0000e-05

             **** THE GBW FILE WAS UPDATED (ethane_sp_orca.gbw) ****
             **** DENSITY FILE WAS UPDATED (ethane_sp_orca.scfp) ****
             **** ENERGY FILE WAS UPDATED (ethane_sp_orca.en.tmp) ****
             **** THE GBW FILE WAS UPDATED (ethane_sp_orca.gbw) ****
             **** DENSITY FILE WAS UPDATED (ethane_sp_orca.scfp) ****
----------------
ORBITAL ENERGIES
----------------

  NO   OCC          E(Eh)            E(eV) 
   0   2.0000     -10.222464      -278.1674 
   1   2.0000     -10.222378      -278.1650 
   2   2.0000      -0.765767       -20.8376 
   3   2.0000      -0.622824       -16.9479 
   4   2.0000      -0.443854       -12.0779 
   5   2.0000      -0.443761       -12.0754 
   6   2.0000      -0.382193       -10.4000 
   7   2.0000      -0.348590        -9.4856 
   8   2.0000      -0.348396        -9.4803 
   9   0.0000       0.076195         2.0734 
  10   0.0000       0.123790         3.3685 
  11   0.0000       0.136107         3.7037 
  12   0.0000       0.136717         3.7203 
  13   0.0000       0.169189         4.6039 
  14   0.0000       0.170271         4.6333 
  15   0.0000       0.248801         6.7702 
  16   0.0000       0.426848        11.6151 
  17   0.0000       0.429264        11.6809 
  18   0.0000       0.443706        12.0738 
  19   0.0000       0.539397        14.6778 
  20   0.0000       0.541263        14.7285 
  21   0.0000       0.640555        17.4304 
  22   0.0000       0.662779        18.0351 
  23   0.0000       0.694654        18.9025 
  24   0.0000       0.695226        18.9181 
  25   0.0000       0.706886        19.2353 
  26   0.0000       0.718186        19.5428 
  27   0.0000       0.719038        19.5660 
  28   0.0000       0.785160        21.3653 
  29   0.0000       0.989188        26.9172 
  30   0.0000       1.109574        30.1930 
  31   0.0000       1.109886        30.2015 
  32   0.0000       1.371935        37.3323 
  33   0.0000       1.372155        37.3382 
  34   0.0000       1.551749        42.2252 
  35   0.0000       1.556379        42.3512 
  36   0.0000       1.744566        47.4720 
  37   0.0000       1.787995        48.6538 
  38   0.0000       1.788630        48.6711 
  39   0.0000       1.798238        48.9326 
  40   0.0000       1.799194        48.9586 
  41   0.0000       1.831809        49.8461 
  42   0.0000       1.832483        49.8644 
  43   0.0000       1.874734        51.0141 
  44   0.0000       2.046112        55.6775 
  45   0.0000       2.046254        55.6814 
  46   0.0000       2.248610        61.1878 
  47   0.0000       2.375383        64.6375 
  48   0.0000       2.375717        64.6466 
  49   0.0000       2.456844        66.8541 
  50   0.0000       2.562086        69.7179 
  51   0.0000       2.562600        69.7319 
  52   0.0000       2.650712        72.1295 
  53   0.0000       2.848550        77.5130 
  54   0.0000       2.966785        80.7303 
  55   0.0000       2.967618        80.7530 
  56   0.0000       3.032655        82.5227 
  57   0.0000       3.033192        82.5373 

                    ********************************
                    * MULLIKEN POPULATION ANALYSIS *
                    ********************************

-----------------------
MULLIKEN ATOMIC CHARGES
-----------------------
   0 C :   -0.132748
   1 C :   -0.132700
   2 H :    0.043691
   3 H :    0.044080
   4 H :    0.044931
   5 H :    0.044934
   6 H :    0.043760
   7 H :    0.044052
Sum of atomic charges:    0.0000000

--------------------------------
MULLIKEN REDUCED ORBITAL CHARGES
--------------------------------
  0 C s       :     3.073744  s :     3.073744
      pz      :     1.027720  p :     3.030531
      px      :     0.976005
      py      :     1.026806
      dz2     :     0.003941  d :     0.028473
      dxz     :     0.006780
      dyz     :     0.005619
      dx2y2   :     0.006340
      dxy     :     0.005794
  1 C s       :     3.073734  s :     3.073734
      pz      :     1.027706  p :     3.030494
      px      :     0.976012
      py      :     1.026776
      dz2     :     0.003934  d :     0.028472
      dxz     :     0.006783
      dyz     :     0.005627
      dx2y2   :     0.006344
      dxy     :     0.005785
  2 H s       :     0.932733  s :     0.932733
      pz      :     0.012122  p :     0.023577
      px      :     0.006024
      py      :     0.005431
  3 H s       :     0.932417  s :     0.932417
      pz      :     0.006454  p :     0.023502
      px      :     0.005603
      py      :     0.011445
  4 H s       :     0.931516  s :     0.931516
      pz      :     0.008577  p :     0.023553
      px      :     0.004633
      py      :     0.010344
  5 H s       :     0.931512  s :     0.931512
      pz      :     0.008588  p :     0.023554
      px      :     0.004632
      py      :     0.010334
  6 H s       :     0.932666  s :     0.932666
      pz      :     0.012115  p :     0.023575
      px      :     0.006027
      py      :     0.005432
  7 H s       :     0.932444  s :     0.932444
      pz      :     0.006450  p :     0.023503
      px      :     0.005600
      py      :     0.011453


                     *******************************
                     * LOEWDIN POPULATION ANALYSIS *
                     *******************************

----------------------
LOEWDIN ATOMIC CHARGES
----------------------
   0 C :   -0.083169
   1 C :   -0.083154
   2 H :    0.027695
   3 H :    0.027692
   4 H :    0.027766
   5 H :    0.027774
   6 H :    0.027682
   7 H :    0.027715

-------------------------------
LOEWDIN REDUCED ORBITAL CHARGES
-------------------------------
  0 C s       :     2.845301  s :     2.845301
      pz      :     1.069389  p :     3.166317
      px      :     1.027770
      py      :     1.069158
      dz2     :     0.010686  d :     0.071551
      dxz     :     0.015543
      dyz     :     0.014747
      dx2y2   :     0.017652
      dxy     :     0.012923
  1 C s       :     2.845297  s :     2.845297
      pz      :     1.069364  p :     3.166306
      px      :     1.027787
      py      :     1.069155
      dz2     :     0.010670  d :     0.071550
      dxz     :     0.015553
      dyz     :     0.014765
      dx2y2   :     0.017661
      dxy     :     0.012900
  2 H s       :     0.907099  s :     0.907099
      pz      :     0.033506  p :     0.065206
      px      :     0.018100
      py      :     0.013600
  3 H s       :     0.907191  s :     0.907191
      pz      :     0.016713  p :     0.065117
      px      :     0.016873
      py      :     0.031532
  4 H s       :     0.907104  s :     0.907104
      pz      :     0.022906  p :     0.065130
      px      :     0.014057
      py      :     0.028167
  5 H s       :     0.907096  s :     0.907096
      pz      :     0.022943  p :     0.065130
      px      :     0.014055
      py      :     0.028132
  6 H s       :     0.907110  s :     0.907110
      pz      :     0.033489  p :     0.065208
      px      :     0.018113
      py      :     0.013606
  7 H s       :     0.907170  s :     0.907170
      pz      :     0.016703  p :     0.065115
      px      :     0.016858
      py      :     0.031555


                      *****************************
                      * MAYER POPULATION ANALYSIS *
                      *****************************

  NA   - Mulliken gross atomic population
  ZA   - Total nuclear charge
  QA   - Mulliken gross atomic charge
  VA   - Mayer's total valence
  BVA  - Mayer's bonded valence
  FA   - Mayer's free valence

  ATOM       NA         ZA         QA         VA         BVA        FA
  0 C      6.1327     6.0000    -0.1327     4.0345     4.0345     0.0000
  1 C      6.1327     6.0000    -0.1327     4.0345     4.0345    -0.0000
  2 H      0.9563     1.0000     0.0437     0.9785     0.9785     0.0000
  3 H      0.9559     1.0000     0.0441     0.9783     0.9783    -0.0000
  4 H      0.9551     1.0000     0.0449     0.9784     0.9784    -0.0000
  5 H      0.9551     1.0000     0.0449     0.9784     0.9784    -0.0000
  6 H      0.9562     1.0000     0.0438     0.9785     0.9785     0.0000
  7 H      0.9559     1.0000     0.0441     0.9783     0.9783    -0.0000

  Mayer bond orders larger than 0.100000
B(  0-C ,  1-C ) :   1.1016 B(  0-C ,  2-H ) :   0.9771 B(  0-C ,  3-H ) :   0.9775 
B(  0-C ,  4-H ) :   0.9780 B(  1-C ,  5-H ) :   0.9780 B(  1-C ,  6-H ) :   0.9771 
B(  1-C ,  7-H ) :   0.9775 


------------------
HIRSHFELD ANALYSIS
------------------

Total integrated alpha density =      8.999491359
Total integrated beta density  =      8.999491359

  ATOM     CHARGE      SPIN    
   0 C   -0.070984    0.000000
   1 C   -0.070979    0.000000
   2 H    0.024137    0.000000
   3 H    0.023691    0.000000
   4 H    0.023649    0.000000
   5 H    0.023652    0.000000
   6 H    0.024151    0.000000
   7 H    0.023700    0.000000

  TOTAL   0.001017    0.000000

-------
TIMINGS
-------

Total SCF time: 0 days 0 hours 0 min 2 sec 

Total time                  ....       2.497 sec
Sum of individual times     ....       2.287 sec  ( 91.6%)

Fock matrix formation       ....       1.884 sec  ( 75.4%)
  XC integration            ....       0.390 sec  ( 20.7% of F)
    Basis function eval.    ....       0.167 sec  ( 42.8% of XC)
    Density eval.           ....       0.061 sec  ( 15.6% of XC)
    XC-Functional eval.     ....       0.061 sec  ( 15.7% of XC)
    XC-Potential eval.      ....       0.082 sec  ( 21.0% of XC)
Diagonalization             ....       0.005 sec  (  0.2%)
Density matrix formation    ....       0.001 sec  (  0.0%)
Population analysis         ....       0.030 sec  (  1.2%)
Initial guess               ....       0.146 sec  (  5.8%)
Orbital Transformation      ....       0.000 sec  (  0.0%)
Orbital Orthonormalization  ....       0.000 sec  (  0.0%)
DIIS solution               ....       0.002 sec  (  0.1%)
SOSCF solution              ....       0.002 sec  (  0.1%)
Grid generation             ....       0.218 sec  (  8.7%)

-------------------------   --------------------
FINAL SINGLE POINT ENERGY       -79.664153891019
-------------------------   --------------------


                            ***************************************
                            *     ORCA property calculations      *
                            ***************************************

                                    ---------------------
                                    Active property flags
                                    ---------------------
   (+) Dipole Moment


------------------------------------------------------------------------------
                       ORCA ELECTRIC PROPERTIES CALCULATION
------------------------------------------------------------------------------

Dipole Moment Calculation                       ... on
Quadrupole Moment Calculation                   ... off
Polarizability Calculation                      ... off
GBWName                                         ... ethane_sp_orca.gbw
Electron density file                           ... ethane_sp_orca.scfp
The origin for moment calculation is the CENTER OF MASS  = (-0.000069,  0.000102  0.000270)

-------------
DIPOLE MOMENT
-------------
                                X             Y             Z
Electronic contribution:     -0.00038       0.00047       0.00090
Nuclear contribution   :      0.00040      -0.00055      -0.00107
                        -----------------------------------------
Total Dipole Moment    :      0.00002      -0.00008      -0.00016
                        -----------------------------------------
Magnitude (a.u.)       :      0.00018
Magnitude (Debye)      :      0.00046



--------------------
Rotational spectrum 
--------------------
 
Rotational constants in cm-1:     2.658713     0.668102     0.667999 
Rotational constants in MHz : 79706.216401 20029.179236 20026.105976 

 Dipole components along the rotational axes: 
x,y,z [a.u.] :     0.000011     0.000011    -0.000182 
x,y,z [Debye]:     0.000029     0.000028    -0.000461 

 
[1598605036.329942] [aleph:23896:0]            sys.c:618  UCX  ERROR shmget(size=2097152 flags=0xfb0) for mm_recv_desc failed: Operation not permitted, please check shared memory limits by 'ipcs -l'
[1598605036.343297] [aleph:23897:0]            sys.c:618  UCX  ERROR shmget(size=2097152 flags=0xfb0) for mm_recv_desc failed: Operation not permitted, please check shared memory limits by 'ipcs -l'
[1598605036.352784] [aleph:23896:0]            sys.c:618  UCX  ERROR shmget(size=2097152 flags=0xb80) for ucp_am_bufs failed: Operation not permitted, please check shared memory limits by 'ipcs -l'


           ************************************************************
           *        Program running with 2 parallel MPI-processes     *
           *              working on a common directory               *
           ************************************************************

-------------------------------------------------------------------------------
                               ORCA SCF HESSIAN
-------------------------------------------------------------------------------

Hessian of the Kohn-Sham DFT energy:
Kohn-Sham wavefunction type                      ... RKS
Hartree-Fock exchange scaling                    ...    0.250
Number of operators                              ...    1
Number of atoms                                  ...    8
Basis set dimensions                             ...   58
Integral neglect threshold                       ... 1.0e-10
Integral primitive cutoff                        ... 1.0e-11

Setting up DFT Hessian calculations              ... 
Electron density on the grid                     ... found on disk
Electron density on the final grid               ... found on disk
Building xc-kernel on the grid                   ... done   (      0.0 sec)
Building xc-kernel on the final grid             ... done   (      0.0 sec)
                                                     done   (      0.1 sec)

Nuclear repulsion Hessian                        ... done   (      0.0 sec)

----------------------------------------------
Forming right-hand sides of CP-SCF equations     ...
----------------------------------------------
One electron integral derivatives                ... done   (      0.1 sec)
Transforming the overlap derivative matrices     ... done   (      0.0 sec)
Making the Q(x) pseudodensities                  ... done   (      0.0 sec)
Adding the E*S(x)*S(y) terms to the Hessian      ... done   (      0.0 sec)
Calculating energy weighted overlap derivatives  ... done   (      0.0 sec)
Two electron integral derivatives                ... done   (      0.4 sec)
Exchange-correlation integral derivatives        ... done   (      2.7 sec)
tr(F(y)Q(x)) contribution to the Hessian         ... done   (      0.0 sec)
Response fock operator R(S(x))                   ... done   (      0.5 sec)
XC Response fock operator R(S(x))                ... done   (      0.9 sec)
tr(F(y)S(x)) contribution to the Hessian         ... done   (      0.0 sec)
Transforming and finalizing RHSs                 ... done   (      0.0 sec)

----------------------------------------------
Solving the CP-SCF equations                     ...
----------------------------------------------
     CP-SCF ITERATION   0: 
     CP-SCF ITERATION   1:      0.000187766209
     CP-SCF ITERATION   2:      0.000006304881
     CP-SCF ITERATION   3:      0.000000817702

                                                 ... done   (      3.3 sec)
Forming perturbed density Hessian contributions  ... done   (      0.0 sec)
Making the perturbed densities                   ... done   (      0.0 sec)
2nd integral derivative contribs                 ... done   (      1.5 sec)
Exchange-correlation Hessian                     ... done   (      3.9 sec)
Dipol derivatives                                ... done   (      0.2 sec)

Total SCF Hessian time: 0 days 0 hours 0 min 13 sec 

Writing the Hessian file to the disk             ... done


Maximum memory used throughout the entire calculation: 87.5 MB

-----------------------
VIBRATIONAL FREQUENCIES
-----------------------

Scaling factor for frequencies =  1.000000000  (already applied!)

   0:         0.00 cm**-1
   1:         0.00 cm**-1
   2:         0.00 cm**-1
   3:         0.00 cm**-1
   4:         0.00 cm**-1
   5:         0.00 cm**-1
   6:       320.94 cm**-1
   7:       820.08 cm**-1
   8:       820.30 cm**-1
   9:      1037.69 cm**-1
  10:      1203.23 cm**-1
  11:      1203.71 cm**-1
  12:      1378.99 cm**-1
  13:      1417.52 cm**-1
  14:      1474.61 cm**-1
  15:      1474.97 cm**-1
  16:      1475.13 cm**-1
  17:      1475.57 cm**-1
  18:      3053.95 cm**-1
  19:      3056.20 cm**-1
  20:      3134.07 cm**-1
  21:      3135.80 cm**-1
  22:      3153.92 cm**-1
  23:      3155.62 cm**-1


------------
NORMAL MODES
------------

These modes are the Cartesian displacements weighted by the diagonal matrix
M(i,i)=1/sqrt(m[i]) where m[i] is the mass of the displaced atom
Thus, these vectors are normalized but *not* orthogonal

                  0          1          2          3          4          5    
      0       0.000000   0.000000   0.000000   0.000000   0.000000   0.000000
      1       0.000000   0.000000   0.000000   0.000000   0.000000   0.000000
      2       0.000000   0.000000   0.000000   0.000000   0.000000   0.000000
      3       0.000000   0.000000   0.000000   0.000000   0.000000   0.000000
      4       0.000000   0.000000   0.000000   0.000000   0.000000   0.000000
      5       0.000000   0.000000   0.000000   0.000000   0.000000   0.000000
      6       0.000000   0.000000   0.000000   0.000000   0.000000   0.000000
      7       0.000000   0.000000   0.000000   0.000000   0.000000   0.000000
      8       0.000000   0.000000   0.000000   0.000000   0.000000   0.000000
      9       0.000000   0.000000   0.000000   0.000000   0.000000   0.000000
     10       0.000000   0.000000   0.000000   0.000000   0.000000   0.000000
     11       0.000000   0.000000   0.000000   0.000000   0.000000   0.000000
     12       0.000000   0.000000   0.000000   0.000000   0.000000   0.000000
     13       0.000000   0.000000   0.000000   0.000000   0.000000   0.000000
     14       0.000000   0.000000   0.000000   0.000000   0.000000   0.000000
     15       0.000000   0.000000   0.000000   0.000000   0.000000   0.000000
     16       0.000000   0.000000   0.000000   0.000000   0.000000   0.000000
     17       0.000000   0.000000   0.000000   0.000000   0.000000   0.000000
     18       0.000000   0.000000   0.000000   0.000000   0.000000   0.000000
     19       0.000000   0.000000   0.000000   0.000000   0.000000   0.000000
     20       0.000000   0.000000   0.000000   0.000000   0.000000   0.000000
     21       0.000000   0.000000   0.000000   0.000000   0.000000   0.000000
     22       0.000000   0.000000   0.000000   0.000000   0.000000   0.000000
     23       0.000000   0.000000   0.000000   0.000000   0.000000   0.000000
                  6          7          8          9         10         11    
      0      -0.000020   0.005230   0.004082   0.282651  -0.018223  -0.009187
      1      -0.000003   0.046716  -0.011486  -0.024001  -0.131968   0.063317
      2      -0.000010  -0.010993  -0.046738   0.030931   0.061919   0.132292
      3       0.000035   0.005174   0.004245  -0.282657   0.018230   0.009103
      4       0.000013   0.046695  -0.011532   0.023955   0.131998  -0.063345
      5      -0.000022  -0.011047  -0.046689  -0.031004  -0.061912  -0.132253
      6      -0.040233   0.019930   0.485969   0.366946  -0.111416  -0.465164
      7      -0.402104  -0.225387   0.001212  -0.027019   0.273574  -0.048588
      8       0.058217   0.050414   0.203743   0.065516  -0.067841  -0.087616
      9       0.053372   0.387887  -0.308742   0.367799  -0.301967   0.375840
     10       0.147073  -0.200229   0.039964  -0.054748   0.134638   0.003925
     11      -0.376879   0.119030   0.174357   0.030652  -0.211866  -0.153042
     12      -0.013418  -0.469715  -0.227117   0.372813   0.475329   0.120669
     13       0.254785  -0.130894   0.095958  -0.011100   0.039136  -0.170547
     14       0.318931  -0.038166   0.178641   0.024934   0.069727  -0.208751
     15      -0.013325  -0.469619  -0.227237  -0.372883  -0.475162  -0.120738
     16       0.255265  -0.131002   0.096039   0.011590  -0.039615   0.170834
     17       0.318536  -0.038298   0.178311  -0.024337  -0.070359   0.208174
     18      -0.040121   0.019616   0.486193  -0.366232   0.111265   0.465825
     19      -0.401979  -0.225711   0.001319   0.026924  -0.274005   0.048832
     20       0.058559   0.050552   0.204200  -0.065250   0.068307   0.088251
     21       0.053546   0.387931  -0.308285  -0.368371   0.301863  -0.375425
     22       0.146844  -0.199833   0.039785   0.054898  -0.134084  -0.004130
     23      -0.376983   0.119096   0.173998  -0.030645   0.211940   0.152520
                 12         13         14         15         16         17    
      0       0.091589  -0.120853  -0.001075   0.002139  -0.001931  -0.006205
      1      -0.007526   0.010384   0.010602   0.008279   0.029035  -0.040242
      2       0.010195  -0.013330   0.014182  -0.013603   0.038018   0.027896
      3       0.091853   0.120626   0.000880  -0.002215  -0.002690  -0.006005
      4      -0.007595  -0.010290  -0.010949  -0.018305   0.026185  -0.038532
      5       0.010127   0.013412  -0.012498   0.007519   0.040855   0.027204
      6      -0.347967   0.337575   0.231160  -0.194939   0.146121   0.146896
      7       0.003061  -0.001206  -0.237397  -0.353353  -0.265516   0.474882
      8      -0.205313   0.218232   0.168848  -0.035290   0.162567  -0.000187
      9      -0.358360   0.349745  -0.222143  -0.175072  -0.165499   0.190551
     10       0.188470  -0.200897   0.208570  -0.099012   0.203176   0.080098
     11       0.022454  -0.027977  -0.217874   0.391101  -0.195608  -0.423757
     12      -0.385368   0.378617   0.013258   0.301462   0.037821  -0.261447
     13      -0.101427   0.112854  -0.301461   0.101192  -0.310180  -0.060024
     14       0.062038  -0.072172  -0.375880   0.005556  -0.393706   0.084720
     15      -0.386273  -0.377722  -0.019735  -0.326082  -0.033879  -0.228987
     16      -0.101423  -0.112972   0.292496  -0.035064  -0.334093  -0.060877
     17       0.062322   0.071413   0.367846   0.090006  -0.393083   0.070434
     18      -0.348156  -0.336150  -0.223297   0.170304   0.194609   0.133866
     19       0.002796   0.000498   0.243035   0.447253  -0.177777   0.427437
     20      -0.205970  -0.217634  -0.165037  -0.002288   0.171161   0.002119
     21      -0.359707  -0.349361   0.223080   0.225234  -0.124120   0.164611
     22       0.188704   0.200602  -0.201109   0.058448   0.226410   0.077122
     23       0.022319   0.027158   0.202039  -0.376599  -0.291150  -0.389883
                 18         19         20         21         22         23    
      0      -0.034997   0.037801  -0.006911   0.006756   0.007088   0.006261
      1       0.003055  -0.003337  -0.064350  -0.011895   0.064438  -0.014017
      2      -0.004668   0.005224   0.011210  -0.064778  -0.013354  -0.063780
      3      -0.034876  -0.037879   0.006897  -0.006764   0.007041   0.006455
      4       0.002987   0.003295   0.064620   0.011862   0.064148  -0.014116
      5      -0.004764  -0.005328  -0.011205   0.063928  -0.013452  -0.064613
      6       0.172331  -0.173067   0.006838  -0.260435  -0.015261  -0.258770
      7      -0.068800   0.068221  -0.016449   0.100271   0.016600   0.098358
      8      -0.355387   0.351308  -0.014391   0.514258   0.030481   0.504397
      9       0.155088  -0.157076   0.191809   0.117883  -0.190943   0.124725
     10       0.346028  -0.344408   0.407613   0.251437  -0.400047   0.261919
     11       0.156909  -0.156443   0.193947   0.102357  -0.189469   0.110505
     12       0.089543  -0.092073  -0.116582   0.062742   0.121773   0.059382
     13      -0.313637   0.313601   0.375497  -0.209946  -0.384341  -0.193255
     14       0.254069  -0.254119  -0.313050   0.155179   0.318115   0.145086
     15       0.089220   0.092229   0.116859  -0.061640   0.121279   0.060241
     16      -0.312578  -0.314183  -0.376364   0.206359  -0.382744  -0.196123
     17       0.253920   0.255316   0.314690  -0.152889   0.317703   0.147700
     18       0.171792   0.173535  -0.006347   0.257647  -0.015526  -0.262583
     19      -0.068794  -0.068620   0.016297  -0.099497   0.016632   0.100162
     20      -0.353643  -0.351643   0.013389  -0.507944   0.030931   0.511035
     21       0.154607   0.157372  -0.192404  -0.116097  -0.189678   0.125486
     22       0.345792   0.345882  -0.409807  -0.248228  -0.398286   0.264165
     23       0.156511   0.156818  -0.194644  -0.100843  -0.188353   0.111165


-----------
IR SPECTRUM
-----------

 Mode    freq (cm**-1)   T**2         TX         TY         TZ
-------------------------------------------------------------------
   6:       320.94    0.004171  ( -0.017081  -0.028707   0.055276)
   7:       820.08    6.303894  ( -0.294823  -2.422630   0.589778)
   8:       820.30    6.457293  ( -0.221358   0.617881   2.454896)
   9:      1037.69    0.000000  ( -0.000464   0.000292   0.000321)
  10:      1203.23    0.000011  ( -0.000041  -0.002735  -0.001948)
  11:      1203.71    0.000011  (  0.002135   0.000331  -0.002530)
  12:      1378.99    0.666035  ( -0.805101   0.074327  -0.111007)
  13:      1417.52    0.000049  (  0.000351  -0.003761  -0.005913)
  14:      1474.61    0.003794  (  0.008655   0.013211  -0.059537)
  15:      1474.97    0.161172  (  0.004752   0.345637   0.204168)
  16:      1475.13   10.357104  (  0.139045  -1.865062  -2.619029)
  17:      1475.57   10.675513  (  0.414747   2.632326  -1.890597)
  18:      3053.95   49.837052  ( -6.980294   0.605355  -0.863766)
  19:      3056.20    0.000107  ( -0.008237  -0.001557  -0.006029)
  20:      3134.07    0.000191  ( -0.001318   0.013705   0.001168)
  21:      3135.80    0.002036  ( -0.001620  -0.002874  -0.044997)
  22:      3153.92   42.905205  (  0.686596   6.378890  -1.320435)
  23:      3155.62   42.771271  (  0.643128  -1.404674  -6.354884)

The first frequency considered to be a vibration is 6
The total number of vibrations considered is 18


--------------------------
THERMOCHEMISTRY AT 298.15K
--------------------------

Temperature         ... 298.15 K
Pressure            ... 1.00 atm
Total Mass          ... 30.07 AMU

Throughout the following assumptions are being made:
  (1) The electronic state is orbitally nondegenerate
  (2) There are no thermally accessible electronically excited states
  (3) Hindered rotations indicated by low frequency modes are not
      treated as such but are treated as vibrations and this may
      cause some error
  (4) All equations used are the standard statistical mechanics
      equations for an ideal gas
  (5) All vibrations are strictly harmonic

freq.     320.94  E(vib)   ...       0.25 
freq.     820.08  E(vib)   ...       0.05 
freq.     820.30  E(vib)   ...       0.05 
freq.    1037.69  E(vib)   ...       0.02 
freq.    1203.23  E(vib)   ...       0.01 
freq.    1203.71  E(vib)   ...       0.01 
freq.    1378.99  E(vib)   ...       0.01 
freq.    1417.52  E(vib)   ...       0.00 
freq.    1474.61  E(vib)   ...       0.00 
freq.    1474.97  E(vib)   ...       0.00 
freq.    1475.13  E(vib)   ...       0.00 
freq.    1475.57  E(vib)   ...       0.00 
freq.    3053.95  E(vib)   ...       0.00 
freq.    3056.20  E(vib)   ...       0.00 
freq.    3134.07  E(vib)   ...       0.00 
freq.    3135.80  E(vib)   ...       0.00 
freq.    3153.92  E(vib)   ...       0.00 
freq.    3155.62  E(vib)   ...       0.00 

------------
INNER ENERGY
------------

The inner energy is: U= E(el) + E(ZPE) + E(vib) + E(rot) + E(trans)
    E(el)   - is the total energy from the electronic structure calculation
              = E(kin-el) + E(nuc-el) + E(el-el) + E(nuc-nuc)
    E(ZPE)  - the the zero temperature vibrational energy from the frequency calculation
    E(vib)  - the the finite temperature correction to E(ZPE) due to population
              of excited vibrational states
    E(rot)  - is the rotational thermal energy
    E(trans)- is the translational thermal energy

Summary of contributions to the inner energy U:
Electronic energy                ...    -79.66415389 Eh
Zero point energy                ...      0.07470631 Eh      46.88 kcal/mol
Thermal vibrational correction   ...      0.00064195 Eh       0.40 kcal/mol
Thermal rotational correction    ...      0.00141627 Eh       0.89 kcal/mol
Thermal translational correction ...      0.00141627 Eh       0.89 kcal/mol
-----------------------------------------------------------------------
Total thermal energy                    -79.58597309 Eh


Summary of corrections to the electronic energy:
(perhaps to be used in another calculation)
Total thermal correction                  0.00347449 Eh       2.18 kcal/mol
Non-thermal (ZPE) correction              0.07470631 Eh      46.88 kcal/mol
-----------------------------------------------------------------------
Total correction                          0.07818080 Eh      49.06 kcal/mol


--------
ENTHALPY
--------

The enthalpy is H = U + kB*T
                kB is Boltzmann's constant
Total free energy                 ...    -79.58597309 Eh 
Thermal Enthalpy correction       ...      0.00094421 Eh       0.59 kcal/mol
-----------------------------------------------------------------------
Total Enthalpy                    ...    -79.58502888 Eh


Note: Only C1 symmetry has been detected, increase convergence thresholds 
      if your molecule has a higher symmetry. Symmetry factor of 1.0 is   
      used for the rotational entropy correction. 
 

Note: Rotational entropy computed according to Herzberg 
Infrared and Raman Spectra, Chapter V,1, Van Nostrand Reinhold, 1945 
Point Group:  C1, Symmetry Number:   1  
Rotational constants in cm-1:     2.658713     0.668102     0.667999 

Vibrational entropy computed according to the QRRHO of S. Grimme
Chem.Eur.J. 2012 18 9955


-------
ENTROPY
-------

The entropy contributions are T*S = T*(S(el)+S(vib)+S(rot)+S(trans))
     S(el)   - electronic entropy
     S(vib)  - vibrational entropy
     S(rot)  - rotational entropy
     S(trans)- translational entropy
The entropies will be listed as mutliplied by the temperature to get
units of energy

Electronic entropy                ...      0.00000000 Eh      0.00 kcal/mol
Vibrational entropy               ...      0.00092315 Eh      0.58 kcal/mol
Rotational entropy                ...      0.00943006 Eh      5.92 kcal/mol
Translational entropy             ...      0.01716939 Eh     10.77 kcal/mol
-----------------------------------------------------------------------
Final entropy term                ...      0.02752259 Eh     17.27 kcal/mol

In case the symmetry of your molecule has not been determined correctly
or in case you have a reason to use a different symmetry number we print 
out the resulting rotational entropy values for sn=1,12 :
 --------------------------------------------------------
|  sn= 1 | S(rot)=       0.00943006 Eh      5.92 kcal/mol|
|  sn= 2 | S(rot)=       0.00877560 Eh      5.51 kcal/mol|
|  sn= 3 | S(rot)=       0.00839277 Eh      5.27 kcal/mol|
|  sn= 4 | S(rot)=       0.00812114 Eh      5.10 kcal/mol|
|  sn= 5 | S(rot)=       0.00791045 Eh      4.96 kcal/mol|
|  sn= 6 | S(rot)=       0.00773831 Eh      4.86 kcal/mol|
|  sn= 7 | S(rot)=       0.00759276 Eh      4.76 kcal/mol|
|  sn= 8 | S(rot)=       0.00746669 Eh      4.69 kcal/mol|
|  sn= 9 | S(rot)=       0.00735548 Eh      4.62 kcal/mol|
|  sn=10 | S(rot)=       0.00725600 Eh      4.55 kcal/mol|
|  sn=11 | S(rot)=       0.00716601 Eh      4.50 kcal/mol|
|  sn=12 | S(rot)=       0.00708385 Eh      4.45 kcal/mol|
 --------------------------------------------------------


-------------------
GIBBS FREE ENERGY
-------------------

The Gibbs free energy is G = H - T*S

Total enthalpy                    ...    -79.58502888 Eh 
Total entropy correction          ...     -0.02752259 Eh    -17.27 kcal/mol
-----------------------------------------------------------------------
Final Gibbs free energy         ...    -79.61255148 Eh

For completeness - the Gibbs free energy minus the electronic energy
G-E(el)                           ...      0.05160241 Eh     32.38 kcal/mol

[1598605051.290842] [aleph:23935:0]            sys.c:618  UCX  ERROR shmget(size=2097152 flags=0xfb0) for mm_recv_desc failed: Operation not permitted, please check shared memory limits by 'ipcs -l'
[1598605051.291587] [aleph:23936:0]            sys.c:618  UCX  ERROR shmget(size=2097152 flags=0xfb0) for mm_recv_desc failed: Operation not permitted, please check shared memory limits by 'ipcs -l'
[1598605051.300606] [aleph:23935:0]            sys.c:618  UCX  ERROR shmget(size=2097152 flags=0xb80) for ucp_am_bufs failed: Operation not permitted, please check shared memory limits by 'ipcs -l'

Timings for individual modules:

Sum of individual times         ...       19.672 sec (=   0.328 min)
GTO integral calculation        ...        1.294 sec (=   0.022 min)   6.6 %
SCF iterations                  ...        3.479 sec (=   0.058 min)  17.7 %
Analytical frequency calculation...       14.900 sec (=   0.248 min)  75.7 %
                             ****ORCA TERMINATED NORMALLY****
TOTAL RUN TIME: 0 days 0 hours 0 minutes 20 seconds 913 msec
